
    -----------------------------------------------------------------------
          Psi4: An Open-Source Ab Initio Electronic Structure Package
                               Psi4 1.8 release

                         Git: Rev {} zzzzzzz 


    D. G. A. Smith, L. A. Burns, A. C. Simmonett, R. M. Parrish,
    M. C. Schieber, R. Galvelis, P. Kraus, H. Kruse, R. Di Remigio,
    A. Alenaizan, A. M. James, S. Lehtola, J. P. Misiewicz, M. Scheurer,
    R. A. Shaw, J. B. Schriber, Y. Xie, Z. L. Glick, D. A. Sirianni,
    J. S. O'Brien, J. M. Waldrop, A. Kumar, E. G. Hohenstein,
    B. P. Pritchard, B. R. Brooks, H. F. Schaefer III, A. Yu. Sokolov,
    K. Patkowski, A. E. DePrince III, U. Bozkaya, R. A. King,
    F. A. Evangelista, J. M. Turney, T. D. Crawford, C. D. Sherrill,
    J. Chem. Phys. 152(18) 184108 (2020). https://doi.org/10.1063/5.0006002

                            Additional Code Authors
    E. T. Seidl, C. L. Janssen, E. F. Valeev, M. L. Leininger,
    J. F. Gonthier, R. M. Richard, H. R. McAlexander, M. Saitow, X. Wang,
    P. Verma, M. H. Lechner, A. Jiang, S. Behnle, A. G. Heide,
    M. F. Herbst, and D. L. Poole

             Previous Authors, Complete List of Code Contributors,
                       and Citations for Specific Modules
    https://github.com/psi4/psi4/blob/master/codemeta.json
    https://github.com/psi4/psi4/graphs/contributors
    http://psicode.org/psi4manual/master/introduction.html#citing-psifour

    -----------------------------------------------------------------------


    Psi4 started on: Wednesday, 26 July 2023 03:11PM

    Process ID: 4006
    Host:       gn02.cluster.hpc.lamcad.ufg.br
    PSIDATADIR: /home/rafaelfv27/psi4-1.8.0/share/psi4
    Memory:     500.0 MiB
    Threads:    5
    
  ==> Input File <==

--------------------------------------------------------------------------
# PSI4 file produced by CrystaLattE

# Generated from:               supercell.xyz
# Psithon input for N-mer:      2mer-0+15
# Number of atoms per monomer:  [41, 41]
# Number of replicas:           1
# COM priority:                 9.906444796565e-05
# Minimum COM separations:      21.612 
# Separation priority:          9.034499192243e-03
# Minimum monomer separations:  4.801 
# Cutoff priority:              1.881649709956e-03
# Nuclear repulsion energy:     12754.09288266865

memory 10GB


molecule Dimer_0_15 {
  Br           3.90948200      -2.04901300       0.44589600 
  Br          -6.09592000      -1.24018900     -16.85681400 
  O           -1.93494700      -1.55092500      -6.28666700 
  N           -2.04567300      -1.34275600     -11.28921500 
  C            0.58452700      -1.30415600      -1.88678800 
  H           -0.30404500      -1.00224200      -1.74301400 
  C            1.42594700      -1.43374400      -0.81931500 
  H            1.11574000      -1.23246800       0.05711600 
  C            2.71687300      -1.85283800      -1.00838800 
  C            3.17196800      -2.15888800      -2.28659800 
  H            4.05953100      -2.46769400      -2.42249400 
  C            2.31083500      -2.00586300      -3.35801000 
  H            2.62784300      -2.17818800      -4.23837900 
  C            1.00394200      -1.60882600      -3.18272400 
  C            0.05793300      -1.49302400      -4.28367800 
  H           -0.80979900      -1.17181000      -4.07097100 
  C            0.28880900      -1.79218000      -5.55794900 
  H            1.15270600      -2.10098600      -5.80413700 
  C           -0.75074800      -1.66259200      -6.61163500 
  C           -0.32226000      -1.61985500      -8.02377200 
  C            1.00796700      -1.58952600      -8.41373400 
  H            1.69376900      -1.63915500      -7.75788900 
  C            1.33821200      -1.49026700      -9.74709100 
  H            2.24888200      -1.45442300     -10.01691300 
  C            0.32076400      -1.44201600     -10.70033200 
  H            0.54413400      -1.38825000     -11.62206200 
  C           -0.98274700      -1.47234500     -10.33006500 
  C           -1.30835200      -1.54678900      -8.99670900 
  H           -2.22256800      -1.54954600      -8.73673400 
  C           -1.89738900      -1.83215900     -12.43349800 
  H           -1.10824900      -2.32707700     -12.62257100 
  C           -2.90925100      -1.66672700     -13.49900200 
  C           -2.71964300      -2.27882600     -14.72403500 
  H           -1.93678300      -2.79442200     -14.87568700 
  C           -3.66366000      -2.14648000     -15.73439200 
  H           -3.53265400      -2.56833200     -16.57537200 
  C           -4.78157700      -1.40203600     -15.50002100 
  C           -4.98360600      -0.75547300     -14.27892700 
  H           -5.76836800      -0.24263400     -14.12924400 
  C           -4.02322100      -0.87541100     -13.29417300 
  H           -4.12950000      -0.41220100     -12.47288900 
--
  Br           6.52501000       1.97705000       0.39114400 
  Br          16.64711800       1.25425000      17.59616700 
  O           12.54103000       1.66948500       7.03507900 
  N           12.62235900       1.75633600      12.02778000 
  C            9.91005300       1.32207700       2.66868200 
  H           10.78709700       0.98432000       2.53081700 
  C            9.04038900       1.40341500       1.59530100 
  H            9.31670300       1.15113100       0.72084000 
  C            7.76206000       1.86248900       1.82967200 
  C            7.35134500       2.26504000       3.07834000 
  H            6.46859500       2.59176800       3.21029700 
  C            8.23213400       2.19335300       4.13990400 
  H            7.95218700       2.46355800       5.00648700 
  C            9.53193500       1.72462900       3.94492300 
  C           10.50860900       1.64742700       5.04193800 
  H           11.33579200       1.22281800       4.84695700 
  C           10.35179900       2.10787900       6.27485000 
  H            9.55415800       2.57522500       6.49149500 
  C           11.36734800       1.92039000       7.31671900 
  C           10.95623900       2.00586300       8.74067300 
  C            9.61915200       2.09822900       9.12078700 
  H            8.94505100       2.15750900       8.45509400 
  C            9.26265200       2.10374400      10.44823500 
  H            8.34829200       2.16991600      10.69639300 
  C           10.23234600       2.01275600      11.41723300 
  H            9.98073200       2.01964900      12.33305400 
  C           11.58834000       1.91211800      11.07453900 
  C           11.93472400       1.88592500       9.75103000 
  H           12.84824900       1.78666600       9.50681100 
  C           12.43586200       2.07203600      13.22721000 
  H           11.61565600       2.49113000      13.45961200 
  C           13.40458000       1.83078100      14.27892700 
  C           13.19439700       2.24987500      15.56501500 
  H           12.37306500       2.67862000      15.77772200 
  C           14.12873000       2.07479300      16.56946300 
  H           13.95804100       2.37257100      17.45377200 
  C           15.31690600       1.45580200      16.24449500 
  C           15.55605400       0.95812700      14.97810200 
  H           16.36251500       0.49491700      14.78705900 
  C           14.61428700       1.14561700      14.00713500 
  H           14.77393800       0.81061700      13.13267300 
units = ang
no_com
no_reorient
}

set {
	scf_type df
 	soscf true
  mp2_type df
  cc_type df
  freeze_core true
}

energy('hf-3c',bsse_type = 'nocp')--------------------------------------------------------------------------

  Memory set to   9.313 GiB by Python driver.

Scratch directory: /tmp/

  //>>>>>>>>>>>>>>>>>>>>>>>>>>>>>>>>>>>>>//
  // ManyBody Setup: N-Body Levels [1, 2]//
  //<<<<<<<<<<<<<<<<<<<<<<<<<<<<<<<<<<<<<//

        Number of 1-body computations:     2
        Number of 2-body computations:     1

    -----------------------------------------------------------------------
          Psi4: An Open-Source Ab Initio Electronic Structure Package
                               Psi4 1.8 release

                         Git: Rev {} zzzzzzz 


    D. G. A. Smith, L. A. Burns, A. C. Simmonett, R. M. Parrish,
    M. C. Schieber, R. Galvelis, P. Kraus, H. Kruse, R. Di Remigio,
    A. Alenaizan, A. M. James, S. Lehtola, J. P. Misiewicz, M. Scheurer,
    R. A. Shaw, J. B. Schriber, Y. Xie, Z. L. Glick, D. A. Sirianni,
    J. S. O'Brien, J. M. Waldrop, A. Kumar, E. G. Hohenstein,
    B. P. Pritchard, B. R. Brooks, H. F. Schaefer III, A. Yu. Sokolov,
    K. Patkowski, A. E. DePrince III, U. Bozkaya, R. A. King,
    F. A. Evangelista, J. M. Turney, T. D. Crawford, C. D. Sherrill,
    J. Chem. Phys. 152(18) 184108 (2020). https://doi.org/10.1063/5.0006002

                            Additional Code Authors
    E. T. Seidl, C. L. Janssen, E. F. Valeev, M. L. Leininger,
    J. F. Gonthier, R. M. Richard, H. R. McAlexander, M. Saitow, X. Wang,
    P. Verma, M. H. Lechner, A. Jiang, S. Behnle, A. G. Heide,
    M. F. Herbst, and D. L. Poole

             Previous Authors, Complete List of Code Contributors,
                       and Citations for Specific Modules
    https://github.com/psi4/psi4/blob/master/codemeta.json
    https://github.com/psi4/psi4/graphs/contributors
    http://psicode.org/psi4manual/master/introduction.html#citing-psifour

    -----------------------------------------------------------------------


    Psi4 started on: Wednesday, 26 July 2023 03:11PM

    Process ID: 4006
    Host:       gn02.cluster.hpc.lamcad.ufg.br
    PSIDATADIR: /home/rafaelfv27/psi4-1.8.0/share/psi4
    Memory:     9.3 GiB
    Threads:    5
    
  ==> Input QCSchema <==

--------------------------------------------------------------------------
{'driver': 'energy',
 'extras': {'psiapi': True, 'wfn_qcvars_only': True},
 'id': None,
 'keywords': {'CC_TYPE': 'DF',
              'FREEZE_CORE': 'TRUE',
              'MP2_TYPE': 'DF',
              'SCF_TYPE': 'DF',
              'SOSCF': 1,
              'function_kwargs': {}},
 'model': {'basis': '(auto)', 'method': 'hf-3c'},
 'molecule': {'atom_labels': ['', '', '', '', '', '', '', '', '', '', '', '', '', '', '', '', '', '', '', '', '', '',
                              '', '', '', '', '', '', '', '', '', '', '', '', '', '', '', '', '', '', ''],
              'atomic_numbers': [35, 35, 8, 7, 6, 1, 6, 1, 6, 6, 1, 6, 1, 6, 6, 1, 6, 1, 6, 6, 6, 1, 6, 1, 6, 1, 6, 6,
                                 1, 6, 1, 6, 6, 1, 6, 1, 6, 6, 1, 6, 1],
              'fix_com': True,
              'fix_orientation': True,
              'fragment_charges': [0.0],
              'fragment_multiplicities': [1],
              'fragments': [[0, 1, 2, 3, 4, 5, 6, 7, 8, 9, 10, 11, 12, 13, 14, 15, 16, 17, 18, 19, 20, 21, 22, 23, 24,
                             25, 26, 27, 28, 29, 30, 31, 32, 33, 34, 35, 36, 37, 38, 39, 40]],
              'geometry': [7.387850272407121, -3.872073397502721, 0.8426213204371438, -11.519619282700884,
                           -2.3436175538054185, -31.854761807783273, -3.6565198972762483, -2.9308234911256825,
                           -11.880078871953588, -3.8657617122436916, -2.537441093315252, -21.333524521410396,
                           1.104595942935488, -2.4644976648725794, -3.5655125768003244, -0.5745617798148254,
                           -1.8939628914311046, -3.293819092838751, 2.694649299418214, -2.7093834940184083,
                           -1.5482809604794805, 2.1084430272183172, -2.3290269783907585, 0.10793359738164932,
                           5.134145887650986, -3.5013563748410315, -1.9055771481981685, 5.994150798716216,
                           -4.0797070555373995, -4.32104397901962, 7.671401787805942, -4.663265821435529,
                           -4.577850200564836, 4.36684527112234, -3.790531715189216, -6.345719226548642,
                           4.965903570701475, -4.1161787697587355, -8.009375525891825, 1.8971754258443827,
                           -3.040240523515816, -6.01447669292164, 0.10947750362614836, -2.8214064587355483,
                           -8.09497822964894, -1.530298326669624, -2.2143999710727376, -7.69302025468118,
                           0.5457699125673499, -3.3867293675230106, -10.503001429262211, 2.1782986431719906,
                           -3.97028813342114, -10.968229324636422, -1.4187081092352134, -3.1418435383771817,
                           -12.494179391491366, -0.6089831411900397, -3.06108231295349, -15.162731573117007,
                           1.9047815734993507, -3.00376880929448, -15.899652952452794, 3.2007595297905804,
                           -3.097554027174826, -14.660285521701905, 2.528854177801171, -2.816196483807661,
                           -18.419332509914867, 4.249771068471851, -2.748461140566751, -18.929222192538152,
                           0.6061561109063548, -2.7250153085281954, -20.22069693147241, 1.02826423554987,
                           -2.62341229366683, -21.962514193090655, -1.8571226806153043, -2.782328812187206,
                           -19.520993708177517, -2.4724269556950005, -2.923007583870788, -17.00131604044157,
                           -4.200044815206554, -2.928217558798676, -16.510034490975674, -3.585545563456303,
                           -3.4622787282926892, -23.495906001427656, -2.094287088812512, -4.397538202852027,
                           -23.853202189146344, -5.497687620214312, -3.1496575559059496, -25.509416747007474,
                           -5.139380429018504, -4.3063570275725604, -27.824393611655452, -3.6599894344425885,
                           -5.280692258954115, -28.11097435803338, -6.923314016794827, -4.056259333772719,
                           -29.733691630594645, -6.675748556003098, -4.853444079249354, -31.322913507582175,
                           -9.035870977788264, -2.649464058032392, -29.29079462884497, -9.417650457188385,
                           -1.4276370651780017, -26.98326139540517, -10.900635710854921, -0.45851180872433467,
                           -26.700401519768267, -7.60278583219057, -1.6542870372131628, -25.122346034456072,
                           -7.803624035078101, -0.7789469986398422, -23.570344203235564],
              'mass_numbers': [79, 79, 16, 14, 12, 1, 12, 1, 12, 12, 1, 12, 1, 12, 12, 1, 12, 1, 12, 12, 12, 1, 12, 1,
                               12, 1, 12, 12, 1, 12, 1, 12, 12, 1, 12, 1, 12, 12, 1, 12, 1],
              'masses': [78.9183376, 78.9183376, 15.99491461957, 14.00307400443, 12.0, 1.00782503223, 12.0,
                         1.00782503223, 12.0, 12.0, 1.00782503223, 12.0, 1.00782503223, 12.0, 12.0, 1.00782503223, 12.0,
                         1.00782503223, 12.0, 12.0, 12.0, 1.00782503223, 12.0, 1.00782503223, 12.0, 1.00782503223, 12.0,
                         12.0, 1.00782503223, 12.0, 1.00782503223, 12.0, 12.0, 1.00782503223, 12.0, 1.00782503223, 12.0,
                         12.0, 1.00782503223, 12.0, 1.00782503223],
              'molecular_charge': 0.0,
              'molecular_multiplicity': 1,
              'name': 'Dimer_0_15',
              'provenance': {'creator': 'QCElemental',
                             'routine': 'qcelemental.molparse.from_string',
                             'version': 'v0.25.1'},
              'real': [True, True, True, True, True, True, True, True, True, True, True, True, True, True, True, True,
                       True, True, True, True, True, True, True, True, True, True, True, True, True, True, True, True,
                       True, True, True, True, True, True, True, True, True],
              'schema_name': 'qcschema_molecule',
              'schema_version': 2,
              'symbols': ['Br', 'Br', 'O', 'N', 'C', 'H', 'C', 'H', 'C', 'C', 'H', 'C', 'H', 'C', 'C', 'H', 'C', 'H',
                          'C', 'C', 'C', 'H', 'C', 'H', 'C', 'H', 'C', 'C', 'H', 'C', 'H', 'C', 'C', 'H', 'C', 'H', 'C',
                          'C', 'H', 'C', 'H'],
              'validated': True},
 'protocols': {'stdout': True},
 'provenance': {'creator': 'QCElemental', 'routine': 'qcelemental.models.results', 'version': 'v0.25.1'},
 'schema_name': 'qcschema_input',
 'schema_version': 1}
--------------------------------------------------------------------------

Scratch directory: /tmp/
   => Libint2 <=

    Primary   basis highest AM E, G, H:  5, 4, 3
    Auxiliary basis highest AM E, G, H:  6, 5, 4
    Onebody   basis highest AM E, G, H:  6, 5, 4
    Solid Harmonics ordering:            gaussian

*** tstart() called on gn02.cluster.hpc.lamcad.ufg.br
*** at Wed Jul 26 15:11:40 2023

   => Loading Basis Set <=

    Name: MINIX
    Role: ORBITAL
    Keyword: BASIS
    atoms 1-2                                                                       entry BR         line   946 file /home/rafaelfv27/psi4-1.8.0/share/psi4/basis/minix.gbs 
    atoms 3                                                                         entry O          line   102 file /home/rafaelfv27/psi4-1.8.0/share/psi4/basis/minix.gbs 
    atoms 4                                                                         entry N          line    88 file /home/rafaelfv27/psi4-1.8.0/share/psi4/basis/minix.gbs 
    atoms 5, 7, 9-10, 12, 14-15, 17, 19-21, 23, 25, 27-28, 30, 32-33, 35, 37-38, 40 entry C          line    74 file /home/rafaelfv27/psi4-1.8.0/share/psi4/basis/minix.gbs 
    atoms 6, 8, 11, 13, 16, 18, 22, 24, 26, 29, 31, 34, 36, 39, 41                  entry H          line    24 file /home/rafaelfv27/psi4-1.8.0/share/psi4/basis/minix.gbs 

   => HF3C: Empirical Dispersion <=

    Grimme's -D3 (BJ-damping) Dispersion Correction
    Grimme S.; Ehrlich S.; Goerigk L. (2011), J. Comput. Chem., 32: 1456

        s6 =       1.000000
        s8 =       0.877700
        a1 =       0.417100
        a2 =       2.914900


         ---------------------------------------------------------
                                   SCF
               by Justin Turney, Rob Parrish, Andy Simmonett
                          and Daniel G. A. Smith
                              RHF Reference
                        5 Threads,   9536 MiB Core
         ---------------------------------------------------------

  ==> Geometry <==

    Molecular point group: c1
    Full point group: C1

    Geometry (in Bohr), charge = 0, multiplicity = 1:

       Center              X                  Y                   Z               Mass       
    ------------   -----------------  -----------------  -----------------  -----------------
         BR           7.387850272407    -3.872073397503     0.842621320437    78.918337600000
         BR         -11.519619282701    -2.343617553805   -31.854761807783    78.918337600000
         O           -3.656519897276    -2.930823491126   -11.880078871954    15.994914619570
         N           -3.865761712244    -2.537441093315   -21.333524521410    14.003074004430
         C            1.104595942935    -2.464497664873    -3.565512576800    12.000000000000
         H           -0.574561779815    -1.893962891431    -3.293819092839     1.007825032230
         C            2.694649299418    -2.709383494018    -1.548280960479    12.000000000000
         H            2.108443027218    -2.329026978391     0.107933597382     1.007825032230
         C            5.134145887651    -3.501356374841    -1.905577148198    12.000000000000
         C            5.994150798716    -4.079707055537    -4.321043979020    12.000000000000
         H            7.671401787806    -4.663265821436    -4.577850200565     1.007825032230
         C            4.366845271122    -3.790531715189    -6.345719226549    12.000000000000
         H            4.965903570701    -4.116178769759    -8.009375525892     1.007825032230
         C            1.897175425844    -3.040240523516    -6.014476692922    12.000000000000
         C            0.109477503626    -2.821406458736    -8.094978229649    12.000000000000
         H           -1.530298326670    -2.214399971073    -7.693020254681     1.007825032230
         C            0.545769912567    -3.386729367523   -10.503001429262    12.000000000000
         H            2.178298643172    -3.970288133421   -10.968229324636     1.007825032230
         C           -1.418708109235    -3.141843538377   -12.494179391491    12.000000000000
         C           -0.608983141190    -3.061082312953   -15.162731573117    12.000000000000
         C            1.904781573499    -3.003768809294   -15.899652952453    12.000000000000
         H            3.200759529791    -3.097554027175   -14.660285521702     1.007825032230
         C            2.528854177801    -2.816196483808   -18.419332509915    12.000000000000
         H            4.249771068472    -2.748461140567   -18.929222192538     1.007825032230
         C            0.606156110906    -2.725015308528   -20.220696931472    12.000000000000
         H            1.028264235550    -2.623412293667   -21.962514193091     1.007825032230
         C           -1.857122680615    -2.782328812187   -19.520993708178    12.000000000000
         C           -2.472426955695    -2.923007583871   -17.001316040442    12.000000000000
         H           -4.200044815207    -2.928217558799   -16.510034490976     1.007825032230
         C           -3.585545563456    -3.462278728293   -23.495906001428    12.000000000000
         H           -2.094287088813    -4.397538202852   -23.853202189146     1.007825032230
         C           -5.497687620214    -3.149657555906   -25.509416747007    12.000000000000
         C           -5.139380429019    -4.306357027573   -27.824393611655    12.000000000000
         H           -3.659989434443    -5.280692258954   -28.110974358033     1.007825032230
         C           -6.923314016795    -4.056259333773   -29.733691630595    12.000000000000
         H           -6.675748556003    -4.853444079249   -31.322913507582     1.007825032230
         C           -9.035870977788    -2.649464058032   -29.290794628845    12.000000000000
         C           -9.417650457188    -1.427637065178   -26.983261395405    12.000000000000
         H          -10.900635710855    -0.458511808724   -26.700401519768     1.007825032230
         C           -7.602785832191    -1.654287037213   -25.122346034456    12.000000000000
         H           -7.803624035078    -0.778946998640   -23.570344203236     1.007825032230

  Running in c1 symmetry.

  Rotational constants: A =      0.00533  B =      0.00030  C =      0.00029 [cm^-1]
  Rotational constants: A =    159.77945  B =      9.12162  C =      8.65479 [MHz]
  Nuclear repulsion = 2530.218260911291054

  Charge       = 0
  Multiplicity = 1
  Electrons    = 232
  Nalpha       = 116
  Nbeta        = 116

  ==> Algorithm <==

  SCF Algorithm Type is DF.
  DIIS enabled.
  MOM disabled.
  Fractional occupation disabled.
  Guess Type is SAD.
  Energy threshold   = 1.00e-06
  Density threshold  = 1.00e-06
  Integral threshold = 1.00e-12

  ==> Primary Basis <==

  Basis Set: MINIX
    Blend: MINIX
    Number of shells: 111
    Number of basis functions: 199
    Number of Cartesian functions: 205
    Spherical Harmonics?: true
    Max angular momentum: 2

   => Loading Basis Set <=

    Name: (MINIX AUX)
    Role: JKFIT
    Keyword: DF_BASIS_SCF
    atoms 1-2                                                                       entry BR         line  3124 file /home/rafaelfv27/psi4-1.8.0/share/psi4/basis/def2-universal-jkfit.gbs 
    atoms 3                                                                         entry O          line   318 file /home/rafaelfv27/psi4-1.8.0/share/psi4/basis/def2-universal-jkfit.gbs 
    atoms 4                                                                         entry N          line   258 file /home/rafaelfv27/psi4-1.8.0/share/psi4/basis/def2-universal-jkfit.gbs 
    atoms 5, 7, 9-10, 12, 14-15, 17, 19-21, 23, 25, 27-28, 30, 32-33, 35, 37-38, 40 entry C          line   198 file /home/rafaelfv27/psi4-1.8.0/share/psi4/basis/def2-universal-jkfit.gbs 
    atoms 6, 8, 11, 13, 16, 18, 22, 24, 26, 29, 31, 34, 36, 39, 41                  entry H          line    18 file /home/rafaelfv27/psi4-1.8.0/share/psi4/basis/def2-universal-jkfit.gbs 

  ==> Integral Setup <==

  DFHelper Memory: AOs need 0.423 GiB; user supplied 6.985 GiB. 
  Using in-core AOs.

  ==> MemDFJK: Density-Fitted J/K Matrices <==

    J tasked:                   Yes
    K tasked:                   Yes
    wK tasked:                   No
    OpenMP threads:               5
    Memory [MiB]:              7152
    Algorithm:                 Core
    Schwarz Cutoff:           1E-12
    Mask sparsity (%):      53.0744
    Fitting Condition:        1E-10

   => Auxiliary Basis Set <=

  Basis Set: (MINIX AUX)
    Blend: DEF2-UNIVERSAL-JKFIT
    Number of shells: 810
    Number of basis functions: 2606
    Number of Cartesian functions: 3186
    Spherical Harmonics?: true
    Max angular momentum: 5

  Minimum eigenvalue in the overlap matrix is 7.9443917147E-02.
  Reciprocal condition number of the overlap matrix is 2.8163329096E-02.
    Using symmetric orthogonalization.

  ==> Pre-Iterations <==

  SCF Guess: Superposition of Atomic Densities via on-the-fly atomic UHF (no occupation information).

   -------------------------
    Irrep   Nso     Nmo    
   -------------------------
     A        199     199 
   -------------------------
    Total     199     199
   -------------------------

  ==> Iterations <==

                           Total Energy        Delta E     RMS |[F,P]|

   @DF-RHF iter SAD: -6097.07669394232016   -6.09708e+03   0.00000e+00 
   @DF-RHF iter   1: -6108.02670824612505   -1.09500e+01   8.21686e-03 DIIS/ADIIS
   @DF-RHF iter   2: -6108.53493517609422   -5.08227e-01   4.70707e-03 DIIS/ADIIS
   @DF-RHF iter   3: -6108.74154884479321   -2.06614e-01   3.50352e-04 SOSCF, nmicro=5
   @DF-RHF iter   4: -6108.74738313556736   -5.83429e-03   1.16276e-05 SOSCF, nmicro=5
   @DF-RHF iter   5: -6108.74738894163875   -5.80607e-06   5.54843e-07 SOSCF, nmicro=5
   @DF-RHF iter   6: -6108.74738895331120   -1.16725e-08   3.26794e-08 SOSCF, nmicro=conv
  Energy and wave function converged.


  ==> Post-Iterations <==

    Orbital Energies [Eh]
    ---------------------

    Doubly Occupied:                                                      

       1A   -489.982757     2A   -489.977846     3A    -65.151700  
       4A    -65.146785     5A    -58.523772     6A    -58.521996  
       7A    -58.521941     8A    -58.518852     9A    -58.517086  
      10A    -58.517036    11A    -20.359213    12A    -15.451447  
      13A    -11.315258    14A    -11.264537    15A    -11.260367  
      16A    -11.258001    17A    -11.254220    18A    -11.235217  
      19A    -11.228112    20A    -11.226869    21A    -11.225054  
      22A    -11.222479    23A    -11.221935    24A    -11.220459  
      25A    -11.220127    26A    -11.219969    27A    -11.218999  
      28A    -11.218161    29A    -11.217290    30A    -11.217081  
      31A    -11.216856    32A    -11.215074    33A    -11.214967  
      34A    -11.202606    35A     -9.843828    36A     -9.838886  
      37A     -7.461327    38A     -7.456339    39A     -7.450976  
      40A     -7.450785    41A     -7.446054    42A     -7.445887  
      43A     -3.203964    44A     -3.199451    45A     -3.199110  
      46A     -3.198958    47A     -3.194477    48A     -3.194163  
      49A     -3.188195    50A     -3.188194    51A     -3.183312  
      52A     -3.183310    53A     -1.399595    54A     -1.294920  
      55A     -1.227323    56A     -1.219661    57A     -1.202226  
      58A     -1.144929    59A     -1.110594    60A     -1.091842  
      61A     -1.085060    62A     -1.078351    63A     -1.077320  
      64A     -1.067986    65A     -1.004523    66A     -1.000686  
      67A     -0.941134    68A     -0.916343    69A     -0.906060  
      70A     -0.901084    71A     -0.882878    72A     -0.867685  
      73A     -0.845731    74A     -0.828875    75A     -0.786741  
      76A     -0.778296    77A     -0.755064    78A     -0.745494  
      79A     -0.713319    80A     -0.706985    81A     -0.702806  
      82A     -0.696487    83A     -0.682917    84A     -0.670119  
      85A     -0.665090    86A     -0.659072    87A     -0.657941  
      88A     -0.650749    89A     -0.625997    90A     -0.613117  
      91A     -0.609659    92A     -0.593296    93A     -0.586938  
      94A     -0.583830    95A     -0.580722    96A     -0.564411  
      97A     -0.555605    98A     -0.550444    99A     -0.543800  
     100A     -0.540845   101A     -0.516506   102A     -0.509162  
     103A     -0.505041   104A     -0.480710   105A     -0.448342  
     106A     -0.429691   107A     -0.428215   108A     -0.421968  
     109A     -0.418328   110A     -0.417631   111A     -0.396080  
     112A     -0.388870   113A     -0.379807   114A     -0.378282  
     115A     -0.338605   116A     -0.337210  

    Virtual:                                                              

     117A      0.062389   118A      0.088884   119A      0.123838  
     120A      0.148946   121A      0.149505   122A      0.163153  
     123A      0.196691   124A      0.199774   125A      0.210099  
     126A      0.254794   127A      0.310439   128A      0.407015  
     129A      0.413558   130A      0.435341   131A      0.477892  
     132A      0.488812   133A      0.494465   134A      0.529588  
     135A      0.594037   136A      0.606529   137A      0.607608  
     138A      0.612558   139A      0.629015   140A      0.669957  
     141A      0.672132   142A      0.680017   143A      0.682836  
     144A      0.688713   145A      0.705094   146A      0.707801  
     147A      0.723384   148A      0.724669   149A      0.730629  
     150A      0.735105   151A      0.736214   152A      0.739242  
     153A      0.752906   154A      0.756662   155A      0.762786  
     156A      0.765312   157A      0.770727   158A      0.789289  
     159A      0.799645   160A      0.805454   161A      0.834082  
     162A      0.842245   163A      0.846166   164A      0.850205  
     165A      0.859211   166A      0.863315   167A      0.871210  
     168A      0.886205   169A      0.891519   170A      0.898673  
     171A      0.910042   172A      0.928809   173A      0.944156  
     174A      0.965312   175A      0.997820   176A      1.008976  
     177A      1.016265   178A      1.022667   179A      1.039950  
     180A      1.043913   181A      1.057116   182A      1.086934  
     183A      1.099285   184A      1.111261   185A      1.138973  
     186A      1.146864   187A      1.195217   188A      1.210359  
     189A      1.212242   190A      3.891783   191A      3.892614  
     192A      3.896179   193A      3.896551   194A      3.897413  
     195A      3.900638   196A      3.901885   197A      3.906263  
     198A      4.059921   199A      4.062945  

    Final Occupation by Irrep:
              A 
    DOCC [   116 ]
    NA   [   116 ]
    NB   [   116 ]

  @DF-RHF Final Energy: -6108.74738895331120

   => Energetics <=

    Nuclear Repulsion Energy =           2530.2182609112910541
    One-Electron Energy =              -13502.4066799215688661
    Two-Electron Energy =                4863.8830633134939490
    Total Energy =                      -6108.7473889533112015

Computation Completed


Properties will be evaluated at   0.000000,   0.000000,   0.000000 [a0]

Properties computed using the SCF density matrix


 Multipole Moments:

 ------------------------------------------------------------------------------------
     Multipole            Electronic (a.u.)      Nuclear  (a.u.)        Total (a.u.)
 ------------------------------------------------------------------------------------

 L = 1.  Multiply by 2.5417464519 to convert [e a0] to [Debye]
 Dipole X            :        374.3697278         -372.9979977            1.3717301
 Dipole Y            :        706.5587211         -706.8299777           -0.2712566
 Dipole Z            :       3663.3756034        -3663.7182931           -0.3426897
 Magnitude           :                                                    1.4396735

 ------------------------------------------------------------------------------------

*** tstop() called on gn02.cluster.hpc.lamcad.ufg.br at Wed Jul 26 15:12:00 2023
Module time:
	user time   =      78.69 seconds =       1.31 minutes
	system time =       6.55 seconds =       0.11 minutes
	total time  =         20 seconds =       0.33 minutes
Total time:
	user time   =      78.69 seconds =       1.31 minutes
	system time =       6.55 seconds =       0.11 minutes
	total time  =         20 seconds =       0.33 minutes

    Psi4 stopped on: Wednesday, 26 July 2023 03:12PM
    Psi4 wall time for execution: 0:00:19.79


    -----------------------------------------------------------------------
          Psi4: An Open-Source Ab Initio Electronic Structure Package
                               Psi4 1.8 release

                         Git: Rev {} zzzzzzz 


    D. G. A. Smith, L. A. Burns, A. C. Simmonett, R. M. Parrish,
    M. C. Schieber, R. Galvelis, P. Kraus, H. Kruse, R. Di Remigio,
    A. Alenaizan, A. M. James, S. Lehtola, J. P. Misiewicz, M. Scheurer,
    R. A. Shaw, J. B. Schriber, Y. Xie, Z. L. Glick, D. A. Sirianni,
    J. S. O'Brien, J. M. Waldrop, A. Kumar, E. G. Hohenstein,
    B. P. Pritchard, B. R. Brooks, H. F. Schaefer III, A. Yu. Sokolov,
    K. Patkowski, A. E. DePrince III, U. Bozkaya, R. A. King,
    F. A. Evangelista, J. M. Turney, T. D. Crawford, C. D. Sherrill,
    J. Chem. Phys. 152(18) 184108 (2020). https://doi.org/10.1063/5.0006002

                            Additional Code Authors
    E. T. Seidl, C. L. Janssen, E. F. Valeev, M. L. Leininger,
    J. F. Gonthier, R. M. Richard, H. R. McAlexander, M. Saitow, X. Wang,
    P. Verma, M. H. Lechner, A. Jiang, S. Behnle, A. G. Heide,
    M. F. Herbst, and D. L. Poole

             Previous Authors, Complete List of Code Contributors,
                       and Citations for Specific Modules
    https://github.com/psi4/psi4/blob/master/codemeta.json
    https://github.com/psi4/psi4/graphs/contributors
    http://psicode.org/psi4manual/master/introduction.html#citing-psifour

    -----------------------------------------------------------------------


    Psi4 started on: Wednesday, 26 July 2023 03:11PM

    Process ID: 4006
    Host:       gn02.cluster.hpc.lamcad.ufg.br
    PSIDATADIR: /home/rafaelfv27/psi4-1.8.0/share/psi4
    Memory:     9.3 GiB
    Threads:    5
    
  ==> Input QCSchema <==

--------------------------------------------------------------------------
{'driver': 'energy',
 'extras': {'psiapi': True, 'wfn_qcvars_only': True},
 'id': None,
 'keywords': {'CC_TYPE': 'DF',
              'FREEZE_CORE': 'TRUE',
              'MP2_TYPE': 'DF',
              'SCF_TYPE': 'DF',
              'SOSCF': 1,
              'function_kwargs': {}},
 'model': {'basis': '(auto)', 'method': 'hf-3c'},
 'molecule': {'atom_labels': ['', '', '', '', '', '', '', '', '', '', '', '', '', '', '', '', '', '', '', '', '', '',
                              '', '', '', '', '', '', '', '', '', '', '', '', '', '', '', '', '', '', ''],
              'atomic_numbers': [35, 35, 8, 7, 6, 1, 6, 1, 6, 6, 1, 6, 1, 6, 6, 1, 6, 1, 6, 6, 6, 1, 6, 1, 6, 1, 6, 6,
                                 1, 6, 1, 6, 6, 1, 6, 1, 6, 6, 1, 6, 1],
              'fix_com': True,
              'fix_orientation': True,
              'fragment_charges': [0.0],
              'fragment_multiplicities': [1],
              'fragments': [[0, 1, 2, 3, 4, 5, 6, 7, 8, 9, 10, 11, 12, 13, 14, 15, 16, 17, 18, 19, 20, 21, 22, 23, 24,
                             25, 26, 27, 28, 29, 30, 31, 32, 33, 34, 35, 36, 37, 38, 39, 40]],
              'geometry': [12.330481865873583, 3.736083036336399, 0.7391550356160768, 31.458493798179266,
                           2.370188992855481, 33.251936487818895, 23.699112031150385, 3.1548694205599626,
                           13.294372580959731, 23.852801567207745, 3.3189940242821, 22.729210097259156,
                           18.727286058771725, 2.498363446766909, 5.043078095939047, 20.38465901874776,
                           1.8600952198106493, 4.782551003652804, 17.08385927760157, 2.652069990359398,
                           3.014681977668999, 17.606017062231324, 2.175322324524395, 1.362190180275021,
                           14.668167569371189, 3.5195941216778244, 3.4575789794186753, 13.892028703753779,
                           4.280305263206999, 5.81721952104185, 12.22387296650588, 4.8977317007255845, 6.06658211137889,
                           15.556478688069653, 4.144836466451304, 7.8232847456873635, 15.02745552842611,
                           4.655449914180636, 9.460889280664986, 18.012746595665863, 3.259076478022209,
                           7.454824056019472, 19.85839296952126, 3.1131858416846128, 9.527881961538592,
                           21.421542295155845, 2.3107911212800905, 9.159421271870698, 19.56206501578822,
                           3.9833140156039213, 11.857747978329053, 18.05474197935191, 4.866469961432136,
                           12.267147694778863, 21.48117449277079, 3.6290111540679586, 13.826595046933674,
                           20.70429107505995, 3.790531715189216, 16.51747812218385, 18.177562839149918,
                           3.9650781584932533, 17.23578947863613, 16.90369656825267, 4.077101123210394,
                           15.97781202500173, 17.503875475424202, 3.975499998075153, 19.744302644422874,
                           15.775985495350584, 4.100546955248949, 20.213253300264235, 19.336331560923906,
                           3.8035575973719964, 21.575443480539256, 18.86085001159296, 3.816583479554777,
                           23.30609435048217, 21.898788848687968, 3.6133793395581715, 20.92784567570161,
                           22.553359742928553, 3.5638817431540546, 18.426776141123046, 24.279671801687414,
                           3.3763094176672364, 17.965269116489857, 23.500373313988238, 3.915580562089137,
                           24.995804303917037, 21.950408607530974, 4.70755344291176, 25.434980434925688,
                           25.33098502678949, 3.459674685691808, 26.98326139540517, 24.93379672056239,
                           4.251647566514431, 29.41361548864298, 23.381704182487862, 5.061858194173848,
                           29.815573463610736, 26.69943020053978, 3.920790537017024, 31.31174711590684,
                           26.376874737911503, 4.483509403203605, 32.98284893618433, 28.94475742938176,
                           2.751067072893757, 30.69764659636906, 29.396681652832743, 1.8105976234065324,
                           28.304510659172145, 30.92067207369559, 0.935257584833212, 27.943491710986304,
                           27.616999948838707, 2.164902374668621, 26.469648952314735, 27.918696614494174,
                           1.5318441226402484, 24.817155265194632],
              'mass_numbers': [79, 79, 16, 14, 12, 1, 12, 1, 12, 12, 1, 12, 1, 12, 12, 1, 12, 1, 12, 12, 12, 1, 12, 1,
                               12, 1, 12, 12, 1, 12, 1, 12, 12, 1, 12, 1, 12, 12, 1, 12, 1],
              'masses': [78.9183376, 78.9183376, 15.99491461957, 14.00307400443, 12.0, 1.00782503223, 12.0,
                         1.00782503223, 12.0, 12.0, 1.00782503223, 12.0, 1.00782503223, 12.0, 12.0, 1.00782503223, 12.0,
                         1.00782503223, 12.0, 12.0, 12.0, 1.00782503223, 12.0, 1.00782503223, 12.0, 1.00782503223, 12.0,
                         12.0, 1.00782503223, 12.0, 1.00782503223, 12.0, 12.0, 1.00782503223, 12.0, 1.00782503223, 12.0,
                         12.0, 1.00782503223, 12.0, 1.00782503223],
              'molecular_charge': 0.0,
              'molecular_multiplicity': 1,
              'name': 'Dimer_0_15',
              'provenance': {'creator': 'QCElemental',
                             'routine': 'qcelemental.molparse.from_string',
                             'version': 'v0.25.1'},
              'real': [True, True, True, True, True, True, True, True, True, True, True, True, True, True, True, True,
                       True, True, True, True, True, True, True, True, True, True, True, True, True, True, True, True,
                       True, True, True, True, True, True, True, True, True],
              'schema_name': 'qcschema_molecule',
              'schema_version': 2,
              'symbols': ['Br', 'Br', 'O', 'N', 'C', 'H', 'C', 'H', 'C', 'C', 'H', 'C', 'H', 'C', 'C', 'H', 'C', 'H',
                          'C', 'C', 'C', 'H', 'C', 'H', 'C', 'H', 'C', 'C', 'H', 'C', 'H', 'C', 'C', 'H', 'C', 'H', 'C',
                          'C', 'H', 'C', 'H'],
              'validated': True},
 'protocols': {'stdout': True},
 'provenance': {'creator': 'QCElemental', 'routine': 'qcelemental.models.results', 'version': 'v0.25.1'},
 'schema_name': 'qcschema_input',
 'schema_version': 1}
--------------------------------------------------------------------------

Scratch directory: /tmp/
   => Libint2 <=

    Primary   basis highest AM E, G, H:  5, 4, 3
    Auxiliary basis highest AM E, G, H:  6, 5, 4
    Onebody   basis highest AM E, G, H:  6, 5, 4
    Solid Harmonics ordering:            gaussian

*** tstart() called on gn02.cluster.hpc.lamcad.ufg.br
*** at Wed Jul 26 15:12:00 2023

   => Loading Basis Set <=

    Name: MINIX
    Role: ORBITAL
    Keyword: BASIS
    atoms 1-2                                                                       entry BR         line   946 file /home/rafaelfv27/psi4-1.8.0/share/psi4/basis/minix.gbs 
    atoms 3                                                                         entry O          line   102 file /home/rafaelfv27/psi4-1.8.0/share/psi4/basis/minix.gbs 
    atoms 4                                                                         entry N          line    88 file /home/rafaelfv27/psi4-1.8.0/share/psi4/basis/minix.gbs 
    atoms 5, 7, 9-10, 12, 14-15, 17, 19-21, 23, 25, 27-28, 30, 32-33, 35, 37-38, 40 entry C          line    74 file /home/rafaelfv27/psi4-1.8.0/share/psi4/basis/minix.gbs 
    atoms 6, 8, 11, 13, 16, 18, 22, 24, 26, 29, 31, 34, 36, 39, 41                  entry H          line    24 file /home/rafaelfv27/psi4-1.8.0/share/psi4/basis/minix.gbs 

   => HF3C: Empirical Dispersion <=

    Grimme's -D3 (BJ-damping) Dispersion Correction
    Grimme S.; Ehrlich S.; Goerigk L. (2011), J. Comput. Chem., 32: 1456

        s6 =       1.000000
        s8 =       0.877700
        a1 =       0.417100
        a2 =       2.914900


         ---------------------------------------------------------
                                   SCF
               by Justin Turney, Rob Parrish, Andy Simmonett
                          and Daniel G. A. Smith
                              RHF Reference
                        5 Threads,   9536 MiB Core
         ---------------------------------------------------------

  ==> Geometry <==

    Molecular point group: c1
    Full point group: C1

    Geometry (in Bohr), charge = 0, multiplicity = 1:

       Center              X                  Y                   Z               Mass       
    ------------   -----------------  -----------------  -----------------  -----------------
         BR          12.330481865874     3.736083036336     0.739155035616    78.918337600000
         BR          31.458493798179     2.370188992855    33.251936487819    78.918337600000
         O           23.699112031150     3.154869420560    13.294372580960    15.994914619570
         N           23.852801567208     3.318994024282    22.729210097259    14.003074004430
         C           18.727286058772     2.498363446767     5.043078095939    12.000000000000
         H           20.384659018748     1.860095219811     4.782551003653     1.007825032230
         C           17.083859277602     2.652069990359     3.014681977669    12.000000000000
         H           17.606017062231     2.175322324524     1.362190180275     1.007825032230
         C           14.668167569371     3.519594121678     3.457578979419    12.000000000000
         C           13.892028703754     4.280305263207     5.817219521042    12.000000000000
         H           12.223872966506     4.897731700726     6.066582111379     1.007825032230
         C           15.556478688070     4.144836466451     7.823284745687    12.000000000000
         H           15.027455528426     4.655449914181     9.460889280665     1.007825032230
         C           18.012746595666     3.259076478022     7.454824056019    12.000000000000
         C           19.858392969521     3.113185841685     9.527881961539    12.000000000000
         H           21.421542295156     2.310791121280     9.159421271871     1.007825032230
         C           19.562065015788     3.983314015604    11.857747978329    12.000000000000
         H           18.054741979352     4.866469961432    12.267147694779     1.007825032230
         C           21.481174492771     3.629011154068    13.826595046934    12.000000000000
         C           20.704291075060     3.790531715189    16.517478122184    12.000000000000
         C           18.177562839150     3.965078158493    17.235789478636    12.000000000000
         H           16.903696568253     4.077101123210    15.977812025002     1.007825032230
         C           17.503875475424     3.975499998075    19.744302644423    12.000000000000
         H           15.775985495351     4.100546955249    20.213253300264     1.007825032230
         C           19.336331560924     3.803557597372    21.575443480539    12.000000000000
         H           18.860850011593     3.816583479555    23.306094350482     1.007825032230
         C           21.898788848688     3.613379339558    20.927845675702    12.000000000000
         C           22.553359742929     3.563881743154    18.426776141123    12.000000000000
         H           24.279671801687     3.376309417667    17.965269116490     1.007825032230
         C           23.500373313988     3.915580562089    24.995804303917    12.000000000000
         H           21.950408607531     4.707553442912    25.434980434926     1.007825032230
         C           25.330985026789     3.459674685692    26.983261395405    12.000000000000
         C           24.933796720562     4.251647566514    29.413615488643    12.000000000000
         H           23.381704182488     5.061858194174    29.815573463611     1.007825032230
         C           26.699430200540     3.920790537017    31.311747115907    12.000000000000
         H           26.376874737912     4.483509403204    32.982848936184     1.007825032230
         C           28.944757429382     2.751067072894    30.697646596369    12.000000000000
         C           29.396681652833     1.810597623407    28.304510659172    12.000000000000
         H           30.920672073696     0.935257584833    27.943491710986     1.007825032230
         C           27.616999948839     2.164902374669    26.469648952315    12.000000000000
         H           27.918696614494     1.531844122640    24.817155265195     1.007825032230

  Running in c1 symmetry.

  Rotational constants: A =      0.00425  B =      0.00014  C =      0.00013 [cm^-1]
  Rotational constants: A =    127.53727  B =      4.15868  C =      4.03819 [MHz]
  Nuclear repulsion = 2529.143206722844752

  Charge       = 0
  Multiplicity = 1
  Electrons    = 232
  Nalpha       = 116
  Nbeta        = 116

  ==> Algorithm <==

  SCF Algorithm Type is DF.
  DIIS enabled.
  MOM disabled.
  Fractional occupation disabled.
  Guess Type is SAD.
  Energy threshold   = 1.00e-06
  Density threshold  = 1.00e-06
  Integral threshold = 1.00e-12

  ==> Primary Basis <==

  Basis Set: MINIX
    Blend: MINIX
    Number of shells: 111
    Number of basis functions: 199
    Number of Cartesian functions: 205
    Spherical Harmonics?: true
    Max angular momentum: 2

   => Loading Basis Set <=

    Name: (MINIX AUX)
    Role: JKFIT
    Keyword: DF_BASIS_SCF
    atoms 1-2                                                                       entry BR         line  3124 file /home/rafaelfv27/psi4-1.8.0/share/psi4/basis/def2-universal-jkfit.gbs 
    atoms 3                                                                         entry O          line   318 file /home/rafaelfv27/psi4-1.8.0/share/psi4/basis/def2-universal-jkfit.gbs 
    atoms 4                                                                         entry N          line   258 file /home/rafaelfv27/psi4-1.8.0/share/psi4/basis/def2-universal-jkfit.gbs 
    atoms 5, 7, 9-10, 12, 14-15, 17, 19-21, 23, 25, 27-28, 30, 32-33, 35, 37-38, 40 entry C          line   198 file /home/rafaelfv27/psi4-1.8.0/share/psi4/basis/def2-universal-jkfit.gbs 
    atoms 6, 8, 11, 13, 16, 18, 22, 24, 26, 29, 31, 34, 36, 39, 41                  entry H          line    18 file /home/rafaelfv27/psi4-1.8.0/share/psi4/basis/def2-universal-jkfit.gbs 

  ==> Integral Setup <==

  DFHelper Memory: AOs need 0.423 GiB; user supplied 6.985 GiB. 
  Using in-core AOs.

  ==> MemDFJK: Density-Fitted J/K Matrices <==

    J tasked:                   Yes
    K tasked:                   Yes
    wK tasked:                   No
    OpenMP threads:               5
    Memory [MiB]:              7152
    Algorithm:                 Core
    Schwarz Cutoff:           1E-12
    Mask sparsity (%):      53.0138
    Fitting Condition:        1E-10

   => Auxiliary Basis Set <=

  Basis Set: (MINIX AUX)
    Blend: DEF2-UNIVERSAL-JKFIT
    Number of shells: 810
    Number of basis functions: 2606
    Number of Cartesian functions: 3186
    Spherical Harmonics?: true
    Max angular momentum: 5

  Minimum eigenvalue in the overlap matrix is 7.9897657947E-02.
  Reciprocal condition number of the overlap matrix is 2.8387483923E-02.
    Using symmetric orthogonalization.

  ==> Pre-Iterations <==

  SCF Guess: Superposition of Atomic Densities via on-the-fly atomic UHF (no occupation information).

   -------------------------
    Irrep   Nso     Nmo    
   -------------------------
     A        199     199 
   -------------------------
    Total     199     199
   -------------------------

  ==> Iterations <==

                           Total Energy        Delta E     RMS |[F,P]|

   @DF-RHF iter SAD: -6097.00938529047653   -6.09701e+03   0.00000e+00 
   @DF-RHF iter   1: -6108.01817236535499   -1.10088e+01   8.23021e-03 DIIS/ADIIS
   @DF-RHF iter   2: -6108.53031670943528   -5.12144e-01   4.72717e-03 DIIS/ADIIS
   @DF-RHF iter   3: -6108.73945301885215   -2.09136e-01   3.47394e-04 SOSCF, nmicro=5
   @DF-RHF iter   4: -6108.74530051842066   -5.84750e-03   1.16278e-05 SOSCF, nmicro=5
   @DF-RHF iter   5: -6108.74530641141973   -5.89300e-06   6.25042e-07 SOSCF, nmicro=5
   @DF-RHF iter   6: -6108.74530642712671   -1.57070e-08   4.72658e-08 SOSCF, nmicro=conv
  Energy and wave function converged.


  ==> Post-Iterations <==

    Orbital Energies [Eh]
    ---------------------

    Doubly Occupied:                                                      

       1A   -489.981690     2A   -489.977240     3A    -65.150589  
       4A    -65.146085     5A    -58.522663     6A    -58.520889  
       7A    -58.520837     8A    -58.518161     9A    -58.516395  
      10A    -58.516342    11A    -20.358285    12A    -15.449438  
      13A    -11.315385    14A    -11.266638    15A    -11.262163  
      16A    -11.255658    17A    -11.254569    18A    -11.236693  
      19A    -11.228304    20A    -11.228250    21A    -11.224862  
      22A    -11.224557    23A    -11.223558    24A    -11.223028  
      25A    -11.222161    26A    -11.219072    27A    -11.218953  
      28A    -11.217366    29A    -11.217173    30A    -11.217124  
      31A    -11.216227    32A    -11.215022    33A    -11.213494  
      34A    -11.206189    35A     -9.842643    36A     -9.838066  
      37A     -7.460090    38A     -7.455460    39A     -7.449799  
      40A     -7.449630    41A     -7.445253    42A     -7.445070  
      43A     -3.202716    44A     -3.198239    45A     -3.198080  
      46A     -3.197923    47A     -3.193652    48A     -3.193325  
      49A     -3.187047    50A     -3.187045    51A     -3.182518  
      52A     -3.182516    53A     -1.399553    54A     -1.295036  
      55A     -1.226325    56A     -1.219041    57A     -1.197924  
      58A     -1.146038    59A     -1.109769    60A     -1.091383  
      61A     -1.085070    62A     -1.080622    63A     -1.076377  
      64A     -1.063871    65A     -1.004253    66A     -1.000596  
      67A     -0.940558    68A     -0.919182    69A     -0.907868  
      70A     -0.898404    71A     -0.880560    72A     -0.865177  
      73A     -0.847281    74A     -0.830231    75A     -0.786503  
      76A     -0.779615    77A     -0.755956    78A     -0.745162  
      79A     -0.715582    80A     -0.709683    81A     -0.699955  
      82A     -0.693842    83A     -0.683346    84A     -0.670210  
      85A     -0.663379    86A     -0.661857    87A     -0.657593  
      88A     -0.651682    89A     -0.629439    90A     -0.610733  
      91A     -0.610113    92A     -0.594862    93A     -0.586765  
      94A     -0.583196    95A     -0.579734    96A     -0.563782  
      97A     -0.554653    98A     -0.549297    99A     -0.544140  
     100A     -0.541298   101A     -0.512826   102A     -0.509090  
     103A     -0.505658   104A     -0.479260   105A     -0.446580  
     106A     -0.429785   107A     -0.424239   108A     -0.421556  
     109A     -0.418244   110A     -0.416869   111A     -0.396156  
     112A     -0.392546   113A     -0.381547   114A     -0.375073  
     115A     -0.341230   116A     -0.329830  

    Virtual:                                                              

     117A      0.061484   118A      0.078310   119A      0.123584  
     120A      0.144225   121A      0.153752   122A      0.167350  
     123A      0.193688   124A      0.196520   125A      0.206620  
     126A      0.258474   127A      0.311318   128A      0.403110  
     129A      0.412175   130A      0.435424   131A      0.484873  
     132A      0.491520   133A      0.496905   134A      0.535781  
     135A      0.597431   136A      0.612124   137A      0.620821  
     138A      0.622812   139A      0.632272   140A      0.647808  
     141A      0.665570   142A      0.670379   143A      0.674013  
     144A      0.680552   145A      0.697101   146A      0.704173  
     147A      0.713480   148A      0.730938   149A      0.731529  
     150A      0.735131   151A      0.736107   152A      0.740539  
     153A      0.751060   154A      0.752542   155A      0.756659  
     156A      0.764743   157A      0.773521   158A      0.785479  
     159A      0.800858   160A      0.809097   161A      0.833915  
     162A      0.842289   163A      0.846408   164A      0.851874  
     165A      0.860156   166A      0.866430   167A      0.872560  
     168A      0.885925   169A      0.891418   170A      0.903660  
     171A      0.912495   172A      0.927437   173A      0.943272  
     174A      0.961772   175A      0.997901   176A      1.007056  
     177A      1.015252   178A      1.022912   179A      1.034208  
     180A      1.042793   181A      1.052532   182A      1.083388  
     183A      1.092698   184A      1.112969   185A      1.136914  
     186A      1.141990   187A      1.190796   188A      1.205138  
     189A      1.207995   190A      3.892885   191A      3.893758  
     192A      3.896557   193A      3.897434   194A      3.898266  
     195A      3.900750   196A      3.902169   197A      3.906292  
     198A      4.057474   199A      4.059892  

    Final Occupation by Irrep:
              A 
    DOCC [   116 ]
    NA   [   116 ]
    NB   [   116 ]

  @DF-RHF Final Energy: -6108.74530642712671

   => Energetics <=

    Nuclear Repulsion Energy =           2529.1432067228447522
    One-Electron Energy =              -13500.3302018558424606
    Two-Electron Energy =                4862.8829835203941911
    Total Energy =                      -6108.7453064271267067

Computation Completed


Properties will be evaluated at   0.000000,   0.000000,   0.000000 [a0]

Properties computed using the SCF density matrix


 Multipole Moments:

 ------------------------------------------------------------------------------------
     Multipole            Electronic (a.u.)      Nuclear  (a.u.)        Total (a.u.)
 ------------------------------------------------------------------------------------

 L = 1.  Multiply by 2.5417464519 to convert [e a0] to [Debye]
 Dipole X            :      -4994.2908645         4992.9001036           -1.3907608
 Dipole Y            :       -771.1232463          771.4435330            0.3202867
 Dipole Z            :      -3999.0065293         3999.2634893            0.2569600
 Magnitude           :                                                    1.4501130

 ------------------------------------------------------------------------------------

*** tstop() called on gn02.cluster.hpc.lamcad.ufg.br at Wed Jul 26 15:12:18 2023
Module time:
	user time   =      77.02 seconds =       1.28 minutes
	system time =       6.30 seconds =       0.10 minutes
	total time  =         18 seconds =       0.30 minutes
Total time:
	user time   =     156.50 seconds =       2.61 minutes
	system time =      12.93 seconds =       0.22 minutes
	total time  =         38 seconds =       0.63 minutes

    Psi4 stopped on: Wednesday, 26 July 2023 03:12PM
    Psi4 wall time for execution: 0:00:18.49


    -----------------------------------------------------------------------
          Psi4: An Open-Source Ab Initio Electronic Structure Package
                               Psi4 1.8 release

                         Git: Rev {} zzzzzzz 


    D. G. A. Smith, L. A. Burns, A. C. Simmonett, R. M. Parrish,
    M. C. Schieber, R. Galvelis, P. Kraus, H. Kruse, R. Di Remigio,
    A. Alenaizan, A. M. James, S. Lehtola, J. P. Misiewicz, M. Scheurer,
    R. A. Shaw, J. B. Schriber, Y. Xie, Z. L. Glick, D. A. Sirianni,
    J. S. O'Brien, J. M. Waldrop, A. Kumar, E. G. Hohenstein,
    B. P. Pritchard, B. R. Brooks, H. F. Schaefer III, A. Yu. Sokolov,
    K. Patkowski, A. E. DePrince III, U. Bozkaya, R. A. King,
    F. A. Evangelista, J. M. Turney, T. D. Crawford, C. D. Sherrill,
    J. Chem. Phys. 152(18) 184108 (2020). https://doi.org/10.1063/5.0006002

                            Additional Code Authors
    E. T. Seidl, C. L. Janssen, E. F. Valeev, M. L. Leininger,
    J. F. Gonthier, R. M. Richard, H. R. McAlexander, M. Saitow, X. Wang,
    P. Verma, M. H. Lechner, A. Jiang, S. Behnle, A. G. Heide,
    M. F. Herbst, and D. L. Poole

             Previous Authors, Complete List of Code Contributors,
                       and Citations for Specific Modules
    https://github.com/psi4/psi4/blob/master/codemeta.json
    https://github.com/psi4/psi4/graphs/contributors
    http://psicode.org/psi4manual/master/introduction.html#citing-psifour

    -----------------------------------------------------------------------


    Psi4 started on: Wednesday, 26 July 2023 03:11PM

    Process ID: 4006
    Host:       gn02.cluster.hpc.lamcad.ufg.br
    PSIDATADIR: /home/rafaelfv27/psi4-1.8.0/share/psi4
    Memory:     9.3 GiB
    Threads:    5
    
  ==> Input QCSchema <==

--------------------------------------------------------------------------
{'driver': 'energy',
 'extras': {'psiapi': True, 'wfn_qcvars_only': True},
 'id': None,
 'keywords': {'CC_TYPE': 'DF',
              'FREEZE_CORE': 'TRUE',
              'MP2_TYPE': 'DF',
              'SCF_TYPE': 'DF',
              'SOSCF': 1,
              'function_kwargs': {}},
 'model': {'basis': '(auto)', 'method': 'hf-3c'},
 'molecule': {'atom_labels': ['', '', '', '', '', '', '', '', '', '', '', '', '', '', '', '', '', '', '', '', '', '',
                              '', '', '', '', '', '', '', '', '', '', '', '', '', '', '', '', '', '', '', '', '', '',
                              '', '', '', '', '', '', '', '', '', '', '', '', '', '', '', '', '', '', '', '', '', '',
                              '', '', '', '', '', '', '', '', '', '', '', '', '', '', '', ''],
              'atomic_numbers': [35, 35, 8, 7, 6, 1, 6, 1, 6, 6, 1, 6, 1, 6, 6, 1, 6, 1, 6, 6, 6, 1, 6, 1, 6, 1, 6, 6,
                                 1, 6, 1, 6, 6, 1, 6, 1, 6, 6, 1, 6, 1, 35, 35, 8, 7, 6, 1, 6, 1, 6, 6, 1, 6, 1, 6, 6,
                                 1, 6, 1, 6, 6, 6, 1, 6, 1, 6, 1, 6, 6, 1, 6, 1, 6, 6, 1, 6, 1, 6, 6, 1, 6, 1],
              'fix_com': True,
              'fix_orientation': True,
              'fragment_charges': [0.0, 0.0],
              'fragment_multiplicities': [1, 1],
              'fragments': [[0, 1, 2, 3, 4, 5, 6, 7, 8, 9, 10, 11, 12, 13, 14, 15, 16, 17, 18, 19, 20, 21, 22, 23, 24,
                             25, 26, 27, 28, 29, 30, 31, 32, 33, 34, 35, 36, 37, 38, 39, 40],
                            [41, 42, 43, 44, 45, 46, 47, 48, 49, 50, 51, 52, 53, 54, 55, 56, 57, 58, 59, 60, 61, 62, 63,
                             64, 65, 66, 67, 68, 69, 70, 71, 72, 73, 74, 75, 76, 77, 78, 79, 80, 81]],
              'geometry': [7.387850272407121, -3.872073397502721, 0.8426213204371438, -11.519619282700884,
                           -2.3436175538054185, -31.854761807783273, -3.6565198972762483, -2.9308234911256825,
                           -11.880078871953588, -3.8657617122436916, -2.537441093315252, -21.333524521410396,
                           1.104595942935488, -2.4644976648725794, -3.5655125768003244, -0.5745617798148254,
                           -1.8939628914311046, -3.293819092838751, 2.694649299418214, -2.7093834940184083,
                           -1.5482809604794805, 2.1084430272183172, -2.3290269783907585, 0.10793359738164932,
                           5.134145887650986, -3.5013563748410315, -1.9055771481981685, 5.994150798716216,
                           -4.0797070555373995, -4.32104397901962, 7.671401787805942, -4.663265821435529,
                           -4.577850200564836, 4.36684527112234, -3.790531715189216, -6.345719226548642,
                           4.965903570701475, -4.1161787697587355, -8.009375525891825, 1.8971754258443827,
                           -3.040240523515816, -6.01447669292164, 0.10947750362614836, -2.8214064587355483,
                           -8.09497822964894, -1.530298326669624, -2.2143999710727376, -7.69302025468118,
                           0.5457699125673499, -3.3867293675230106, -10.503001429262211, 2.1782986431719906,
                           -3.97028813342114, -10.968229324636422, -1.4187081092352134, -3.1418435383771817,
                           -12.494179391491366, -0.6089831411900397, -3.06108231295349, -15.162731573117007,
                           1.9047815734993507, -3.00376880929448, -15.899652952452794, 3.2007595297905804,
                           -3.097554027174826, -14.660285521701905, 2.528854177801171, -2.816196483807661,
                           -18.419332509914867, 4.249771068471851, -2.748461140566751, -18.929222192538152,
                           0.6061561109063548, -2.7250153085281954, -20.22069693147241, 1.02826423554987,
                           -2.62341229366683, -21.962514193090655, -1.8571226806153043, -2.782328812187206,
                           -19.520993708177517, -2.4724269556950005, -2.923007583870788, -17.00131604044157,
                           -4.200044815206554, -2.928217558798676, -16.510034490975674, -3.585545563456303,
                           -3.4622787282926892, -23.495906001427656, -2.094287088812512, -4.397538202852027,
                           -23.853202189146344, -5.497687620214312, -3.1496575559059496, -25.509416747007474,
                           -5.139380429018504, -4.3063570275725604, -27.824393611655452, -3.6599894344425885,
                           -5.280692258954115, -28.11097435803338, -6.923314016794827, -4.056259333772719,
                           -29.733691630594645, -6.675748556003098, -4.853444079249354, -31.322913507582175,
                           -9.035870977788264, -2.649464058032392, -29.29079462884497, -9.417650457188385,
                           -1.4276370651780017, -26.98326139540517, -10.900635710854921, -0.45851180872433467,
                           -26.700401519768267, -7.60278583219057, -1.6542870372131628, -25.122346034456072,
                           -7.803624035078101, -0.7789469986398422, -23.570344203235564, 12.330481865873583,
                           3.736083036336399, 0.7391550356160768, 31.458493798179266, 2.370188992855481,
                           33.251936487818895, 23.699112031150385, 3.1548694205599626, 13.294372580959731,
                           23.852801567207745, 3.3189940242821, 22.729210097259156, 18.727286058771725,
                           2.498363446766909, 5.043078095939047, 20.38465901874776, 1.8600952198106493,
                           4.782551003652804, 17.08385927760157, 2.652069990359398, 3.014681977668999,
                           17.606017062231324, 2.175322324524395, 1.362190180275021, 14.668167569371189,
                           3.5195941216778244, 3.4575789794186753, 13.892028703753779, 4.280305263206999,
                           5.81721952104185, 12.22387296650588, 4.8977317007255845, 6.06658211137889,
                           15.556478688069653, 4.144836466451304, 7.8232847456873635, 15.02745552842611,
                           4.655449914180636, 9.460889280664986, 18.012746595665863, 3.259076478022209,
                           7.454824056019472, 19.85839296952126, 3.1131858416846128, 9.527881961538592,
                           21.421542295155845, 2.3107911212800905, 9.159421271870698, 19.56206501578822,
                           3.9833140156039213, 11.857747978329053, 18.05474197935191, 4.866469961432136,
                           12.267147694778863, 21.48117449277079, 3.6290111540679586, 13.826595046933674,
                           20.70429107505995, 3.790531715189216, 16.51747812218385, 18.177562839149918,
                           3.9650781584932533, 17.23578947863613, 16.90369656825267, 4.077101123210394,
                           15.97781202500173, 17.503875475424202, 3.975499998075153, 19.744302644422874,
                           15.775985495350584, 4.100546955248949, 20.213253300264235, 19.336331560923906,
                           3.8035575973719964, 21.575443480539256, 18.86085001159296, 3.816583479554777,
                           23.30609435048217, 21.898788848687968, 3.6133793395581715, 20.92784567570161,
                           22.553359742928553, 3.5638817431540546, 18.426776141123046, 24.279671801687414,
                           3.3763094176672364, 17.965269116489857, 23.500373313988238, 3.915580562089137,
                           24.995804303917037, 21.950408607530974, 4.70755344291176, 25.434980434925688,
                           25.33098502678949, 3.459674685691808, 26.98326139540517, 24.93379672056239,
                           4.251647566514431, 29.41361548864298, 23.381704182487862, 5.061858194173848,
                           29.815573463610736, 26.69943020053978, 3.920790537017024, 31.31174711590684,
                           26.376874737911503, 4.483509403203605, 32.98284893618433, 28.94475742938176,
                           2.751067072893757, 30.69764659636906, 29.396681652832743, 1.8105976234065324,
                           28.304510659172145, 30.92067207369559, 0.935257584833212, 27.943491710986304,
                           27.616999948838707, 2.164902374668621, 26.469648952314735, 27.918696614494174,
                           1.5318441226402484, 24.817155265194632],
              'mass_numbers': [79, 79, 16, 14, 12, 1, 12, 1, 12, 12, 1, 12, 1, 12, 12, 1, 12, 1, 12, 12, 12, 1, 12, 1,
                               12, 1, 12, 12, 1, 12, 1, 12, 12, 1, 12, 1, 12, 12, 1, 12, 1, 79, 79, 16, 14, 12, 1, 12,
                               1, 12, 12, 1, 12, 1, 12, 12, 1, 12, 1, 12, 12, 12, 1, 12, 1, 12, 1, 12, 12, 1, 12, 1, 12,
                               12, 1, 12, 1, 12, 12, 1, 12, 1],
              'masses': [78.9183376, 78.9183376, 15.99491461957, 14.00307400443, 12.0, 1.00782503223, 12.0,
                         1.00782503223, 12.0, 12.0, 1.00782503223, 12.0, 1.00782503223, 12.0, 12.0, 1.00782503223, 12.0,
                         1.00782503223, 12.0, 12.0, 12.0, 1.00782503223, 12.0, 1.00782503223, 12.0, 1.00782503223, 12.0,
                         12.0, 1.00782503223, 12.0, 1.00782503223, 12.0, 12.0, 1.00782503223, 12.0, 1.00782503223, 12.0,
                         12.0, 1.00782503223, 12.0, 1.00782503223, 78.9183376, 78.9183376, 15.99491461957,
                         14.00307400443, 12.0, 1.00782503223, 12.0, 1.00782503223, 12.0, 12.0, 1.00782503223, 12.0,
                         1.00782503223, 12.0, 12.0, 1.00782503223, 12.0, 1.00782503223, 12.0, 12.0, 12.0, 1.00782503223,
                         12.0, 1.00782503223, 12.0, 1.00782503223, 12.0, 12.0, 1.00782503223, 12.0, 1.00782503223, 12.0,
                         12.0, 1.00782503223, 12.0, 1.00782503223, 12.0, 12.0, 1.00782503223, 12.0, 1.00782503223],
              'molecular_charge': 0.0,
              'molecular_multiplicity': 1,
              'name': 'Dimer_0_15',
              'provenance': {'creator': 'QCElemental',
                             'routine': 'qcelemental.molparse.from_string',
                             'version': 'v0.25.1'},
              'real': [True, True, True, True, True, True, True, True, True, True, True, True, True, True, True, True,
                       True, True, True, True, True, True, True, True, True, True, True, True, True, True, True, True,
                       True, True, True, True, True, True, True, True, True, True, True, True, True, True, True, True,
                       True, True, True, True, True, True, True, True, True, True, True, True, True, True, True, True,
                       True, True, True, True, True, True, True, True, True, True, True, True, True, True, True, True,
                       True, True],
              'schema_name': 'qcschema_molecule',
              'schema_version': 2,
              'symbols': ['Br', 'Br', 'O', 'N', 'C', 'H', 'C', 'H', 'C', 'C', 'H', 'C', 'H', 'C', 'C', 'H', 'C', 'H',
                          'C', 'C', 'C', 'H', 'C', 'H', 'C', 'H', 'C', 'C', 'H', 'C', 'H', 'C', 'C', 'H', 'C', 'H', 'C',
                          'C', 'H', 'C', 'H', 'Br', 'Br', 'O', 'N', 'C', 'H', 'C', 'H', 'C', 'C', 'H', 'C', 'H', 'C',
                          'C', 'H', 'C', 'H', 'C', 'C', 'C', 'H', 'C', 'H', 'C', 'H', 'C', 'C', 'H', 'C', 'H', 'C', 'C',
                          'H', 'C', 'H', 'C', 'C', 'H', 'C', 'H'],
              'validated': True},
 'protocols': {'stdout': True},
 'provenance': {'creator': 'QCElemental', 'routine': 'qcelemental.models.results', 'version': 'v0.25.1'},
 'schema_name': 'qcschema_input',
 'schema_version': 1}
--------------------------------------------------------------------------

Scratch directory: /tmp/
   => Libint2 <=

    Primary   basis highest AM E, G, H:  5, 4, 3
    Auxiliary basis highest AM E, G, H:  6, 5, 4
    Onebody   basis highest AM E, G, H:  6, 5, 4
    Solid Harmonics ordering:            gaussian

*** tstart() called on gn02.cluster.hpc.lamcad.ufg.br
*** at Wed Jul 26 15:12:19 2023

   => Loading Basis Set <=

    Name: MINIX
    Role: ORBITAL
    Keyword: BASIS
    atoms 1-2, 42-43                                                                                                                                              entry BR         line   946 file /home/rafaelfv27/psi4-1.8.0/share/psi4/basis/minix.gbs 
    atoms 3, 44                                                                                                                                                   entry O          line   102 file /home/rafaelfv27/psi4-1.8.0/share/psi4/basis/minix.gbs 
    atoms 4, 45                                                                                                                                                   entry N          line    88 file /home/rafaelfv27/psi4-1.8.0/share/psi4/basis/minix.gbs 
    atoms 5, 7, 9-10, 12, 14-15, 17, 19-21, 23, 25, 27-28, 30, 32-33, 35, 37-38, 40, 46, 48, 50-51, 53, 55-56, 58, 60-62, 64, 66, 68-69, 71, 73-74, 76, 78-79, 81 entry C          line    74 file /home/rafaelfv27/psi4-1.8.0/share/psi4/basis/minix.gbs 
    atoms 6, 8, 11, 13, 16, 18, 22, 24, 26, 29, 31, 34, 36, 39, 41, 47, 49, 52, 54, 57, 59, 63, 65, 67, 70, 72, 75, 77, 80, 82                                    entry H          line    24 file /home/rafaelfv27/psi4-1.8.0/share/psi4/basis/minix.gbs 

   => HF3C: Empirical Dispersion <=

    Grimme's -D3 (BJ-damping) Dispersion Correction
    Grimme S.; Ehrlich S.; Goerigk L. (2011), J. Comput. Chem., 32: 1456

        s6 =       1.000000
        s8 =       0.877700
        a1 =       0.417100
        a2 =       2.914900


         ---------------------------------------------------------
                                   SCF
               by Justin Turney, Rob Parrish, Andy Simmonett
                          and Daniel G. A. Smith
                              RHF Reference
                        5 Threads,   9536 MiB Core
         ---------------------------------------------------------

  ==> Geometry <==

    Molecular point group: c1
    Full point group: C1

    Geometry (in Bohr), charge = 0, multiplicity = 1:

       Center              X                  Y                   Z               Mass       
    ------------   -----------------  -----------------  -----------------  -----------------
         BR           7.387850272407    -3.872073397503     0.842621320437    78.918337600000
         BR         -11.519619282701    -2.343617553805   -31.854761807783    78.918337600000
         O           -3.656519897276    -2.930823491126   -11.880078871954    15.994914619570
         N           -3.865761712244    -2.537441093315   -21.333524521410    14.003074004430
         C            1.104595942935    -2.464497664873    -3.565512576800    12.000000000000
         H           -0.574561779815    -1.893962891431    -3.293819092839     1.007825032230
         C            2.694649299418    -2.709383494018    -1.548280960479    12.000000000000
         H            2.108443027218    -2.329026978391     0.107933597382     1.007825032230
         C            5.134145887651    -3.501356374841    -1.905577148198    12.000000000000
         C            5.994150798716    -4.079707055537    -4.321043979020    12.000000000000
         H            7.671401787806    -4.663265821436    -4.577850200565     1.007825032230
         C            4.366845271122    -3.790531715189    -6.345719226549    12.000000000000
         H            4.965903570701    -4.116178769759    -8.009375525892     1.007825032230
         C            1.897175425844    -3.040240523516    -6.014476692922    12.000000000000
         C            0.109477503626    -2.821406458736    -8.094978229649    12.000000000000
         H           -1.530298326670    -2.214399971073    -7.693020254681     1.007825032230
         C            0.545769912567    -3.386729367523   -10.503001429262    12.000000000000
         H            2.178298643172    -3.970288133421   -10.968229324636     1.007825032230
         C           -1.418708109235    -3.141843538377   -12.494179391491    12.000000000000
         C           -0.608983141190    -3.061082312953   -15.162731573117    12.000000000000
         C            1.904781573499    -3.003768809294   -15.899652952453    12.000000000000
         H            3.200759529791    -3.097554027175   -14.660285521702     1.007825032230
         C            2.528854177801    -2.816196483808   -18.419332509915    12.000000000000
         H            4.249771068472    -2.748461140567   -18.929222192538     1.007825032230
         C            0.606156110906    -2.725015308528   -20.220696931472    12.000000000000
         H            1.028264235550    -2.623412293667   -21.962514193091     1.007825032230
         C           -1.857122680615    -2.782328812187   -19.520993708178    12.000000000000
         C           -2.472426955695    -2.923007583871   -17.001316040442    12.000000000000
         H           -4.200044815207    -2.928217558799   -16.510034490976     1.007825032230
         C           -3.585545563456    -3.462278728293   -23.495906001428    12.000000000000
         H           -2.094287088813    -4.397538202852   -23.853202189146     1.007825032230
         C           -5.497687620214    -3.149657555906   -25.509416747007    12.000000000000
         C           -5.139380429019    -4.306357027573   -27.824393611655    12.000000000000
         H           -3.659989434443    -5.280692258954   -28.110974358033     1.007825032230
         C           -6.923314016795    -4.056259333773   -29.733691630595    12.000000000000
         H           -6.675748556003    -4.853444079249   -31.322913507582     1.007825032230
         C           -9.035870977788    -2.649464058032   -29.290794628845    12.000000000000
         C           -9.417650457188    -1.427637065178   -26.983261395405    12.000000000000
         H          -10.900635710855    -0.458511808724   -26.700401519768     1.007825032230
         C           -7.602785832191    -1.654287037213   -25.122346034456    12.000000000000
         H           -7.803624035078    -0.778946998640   -23.570344203236     1.007825032230
         BR          12.330481865874     3.736083036336     0.739155035616    78.918337600000
         BR          31.458493798179     2.370188992855    33.251936487819    78.918337600000
         O           23.699112031150     3.154869420560    13.294372580960    15.994914619570
         N           23.852801567208     3.318994024282    22.729210097259    14.003074004430
         C           18.727286058772     2.498363446767     5.043078095939    12.000000000000
         H           20.384659018748     1.860095219811     4.782551003653     1.007825032230
         C           17.083859277602     2.652069990359     3.014681977669    12.000000000000
         H           17.606017062231     2.175322324524     1.362190180275     1.007825032230
         C           14.668167569371     3.519594121678     3.457578979419    12.000000000000
         C           13.892028703754     4.280305263207     5.817219521042    12.000000000000
         H           12.223872966506     4.897731700726     6.066582111379     1.007825032230
         C           15.556478688070     4.144836466451     7.823284745687    12.000000000000
         H           15.027455528426     4.655449914181     9.460889280665     1.007825032230
         C           18.012746595666     3.259076478022     7.454824056019    12.000000000000
         C           19.858392969521     3.113185841685     9.527881961539    12.000000000000
         H           21.421542295156     2.310791121280     9.159421271871     1.007825032230
         C           19.562065015788     3.983314015604    11.857747978329    12.000000000000
         H           18.054741979352     4.866469961432    12.267147694779     1.007825032230
         C           21.481174492771     3.629011154068    13.826595046934    12.000000000000
         C           20.704291075060     3.790531715189    16.517478122184    12.000000000000
         C           18.177562839150     3.965078158493    17.235789478636    12.000000000000
         H           16.903696568253     4.077101123210    15.977812025002     1.007825032230
         C           17.503875475424     3.975499998075    19.744302644423    12.000000000000
         H           15.775985495351     4.100546955249    20.213253300264     1.007825032230
         C           19.336331560924     3.803557597372    21.575443480539    12.000000000000
         H           18.860850011593     3.816583479555    23.306094350482     1.007825032230
         C           21.898788848688     3.613379339558    20.927845675702    12.000000000000
         C           22.553359742929     3.563881743154    18.426776141123    12.000000000000
         H           24.279671801687     3.376309417667    17.965269116490     1.007825032230
         C           23.500373313988     3.915580562089    24.995804303917    12.000000000000
         H           21.950408607531     4.707553442912    25.434980434926     1.007825032230
         C           25.330985026789     3.459674685692    26.983261395405    12.000000000000
         C           24.933796720562     4.251647566514    29.413615488643    12.000000000000
         H           23.381704182488     5.061858194174    29.815573463611     1.007825032230
         C           26.699430200540     3.920790537017    31.311747115907    12.000000000000
         H           26.376874737912     4.483509403204    32.982848936184     1.007825032230
         C           28.944757429382     2.751067072894    30.697646596369    12.000000000000
         C           29.396681652833     1.810597623407    28.304510659172    12.000000000000
         H           30.920672073696     0.935257584833    27.943491710986     1.007825032230
         C           27.616999948839     2.164902374669    26.469648952315    12.000000000000
         H           27.918696614494     1.531844122640    24.817155265195     1.007825032230

  Running in c1 symmetry.

  Rotational constants: A =      0.00092  B =      0.00010  C =      0.00009 [cm^-1]
  Rotational constants: A =     27.63010  B =      3.03016  C =      2.76885 [MHz]
  Nuclear repulsion = 6749.175296276693189

  Charge       = 0
  Multiplicity = 1
  Electrons    = 464
  Nalpha       = 232
  Nbeta        = 232

  ==> Algorithm <==

  SCF Algorithm Type is DF.
  DIIS enabled.
  MOM disabled.
  Fractional occupation disabled.
  Guess Type is SAD.
  Energy threshold   = 1.00e-06
  Density threshold  = 1.00e-06
  Integral threshold = 1.00e-12

  ==> Primary Basis <==

  Basis Set: MINIX
    Blend: MINIX
    Number of shells: 222
    Number of basis functions: 398
    Number of Cartesian functions: 410
    Spherical Harmonics?: true
    Max angular momentum: 2

   => Loading Basis Set <=

    Name: (MINIX AUX)
    Role: JKFIT
    Keyword: DF_BASIS_SCF
    atoms 1-2, 42-43                                                                                                                                              entry BR         line  3124 file /home/rafaelfv27/psi4-1.8.0/share/psi4/basis/def2-universal-jkfit.gbs 
    atoms 3, 44                                                                                                                                                   entry O          line   318 file /home/rafaelfv27/psi4-1.8.0/share/psi4/basis/def2-universal-jkfit.gbs 
    atoms 4, 45                                                                                                                                                   entry N          line   258 file /home/rafaelfv27/psi4-1.8.0/share/psi4/basis/def2-universal-jkfit.gbs 
    atoms 5, 7, 9-10, 12, 14-15, 17, 19-21, 23, 25, 27-28, 30, 32-33, 35, 37-38, 40, 46, 48, 50-51, 53, 55-56, 58, 60-62, 64, 66, 68-69, 71, 73-74, 76, 78-79, 81 entry C          line   198 file /home/rafaelfv27/psi4-1.8.0/share/psi4/basis/def2-universal-jkfit.gbs 
    atoms 6, 8, 11, 13, 16, 18, 22, 24, 26, 29, 31, 34, 36, 39, 41, 47, 49, 52, 54, 57, 59, 63, 65, 67, 70, 72, 75, 77, 80, 82                                    entry H          line    18 file /home/rafaelfv27/psi4-1.8.0/share/psi4/basis/def2-universal-jkfit.gbs 

  ==> Integral Setup <==

  DFHelper Memory: AOs need 1.846 GiB; user supplied 6.985 GiB. 
  Using in-core AOs.

  ==> MemDFJK: Density-Fitted J/K Matrices <==

    J tasked:                   Yes
    K tasked:                   Yes
    wK tasked:                   No
    OpenMP threads:               5
    Memory [MiB]:              7152
    Algorithm:                 Core
    Schwarz Cutoff:           1E-12
    Mask sparsity (%):      74.0095
    Fitting Condition:        1E-10

   => Auxiliary Basis Set <=

  Basis Set: (MINIX AUX)
    Blend: DEF2-UNIVERSAL-JKFIT
    Number of shells: 1620
    Number of basis functions: 5212
    Number of Cartesian functions: 6372
    Spherical Harmonics?: true
    Max angular momentum: 5

  Minimum eigenvalue in the overlap matrix is 7.8949795177E-02.
  Reciprocal condition number of the overlap matrix is 2.7988150180E-02.
    Using symmetric orthogonalization.

  ==> Pre-Iterations <==

  SCF Guess: Superposition of Atomic Densities via on-the-fly atomic UHF (no occupation information).

   -------------------------
    Irrep   Nso     Nmo    
   -------------------------
     A        398     398 
   -------------------------
    Total     398     398
   -------------------------

  ==> Iterations <==

                           Total Energy        Delta E     RMS |[F,P]|

   @DF-RHF iter SAD: -12194.08709140738938   -1.21941e+04   0.00000e+00 
   @DF-RHF iter   1: -12216.04676694352747   -2.19597e+01   5.81345e-03 DIIS/ADIIS
   @DF-RHF iter   2: -12217.06881503160366   -1.02205e+00   3.33069e-03 DIIS/ADIIS
   @DF-RHF iter   3: -12217.48214238557011   -4.13327e-01   2.39401e-04 SOSCF, nmicro=5
   @DF-RHF iter   4: -12217.49349283190168   -1.13504e-02   8.26738e-06 SOSCF, nmicro=5
   @DF-RHF iter   5: -12217.49350416200650   -1.13301e-05   3.97307e-07 SOSCF, nmicro=5
   @DF-RHF iter   6: -12217.49350418921495   -2.72084e-08   2.99585e-08 SOSCF, nmicro=conv
  Energy and wave function converged.


  ==> Post-Iterations <==

    Orbital Energies [Eh]
    ---------------------

    Doubly Occupied:                                                      

       1A   -489.981355     2A   -489.980353     3A   -489.977849  
       4A   -489.977230     5A    -65.150297     6A    -65.149251  
       7A    -65.146788     8A    -65.146076     9A    -58.522370  
      10A    -58.521327    11A    -58.520590    12A    -58.520536  
      13A    -58.519548    14A    -58.519497    15A    -58.518855  
      16A    -58.518151    17A    -58.517090    18A    -58.517039  
      19A    -58.516386    20A    -58.516332    21A    -20.358912  
      22A    -20.357999    23A    -15.451382    24A    -15.449367  
      25A    -11.315174    26A    -11.315029    27A    -11.265887  
      28A    -11.263751    29A    -11.262136    30A    -11.260354  
      31A    -11.257877    32A    -11.255533    33A    -11.254481  
      34A    -11.254145    35A    -11.236103    36A    -11.234584  
      37A    -11.228215    38A    -11.228088    39A    -11.228000  
      40A    -11.226708    41A    -11.224730    42A    -11.224205  
      43A    -11.223906    44A    -11.223397    45A    -11.222385  
      46A    -11.221788    47A    -11.221603    48A    -11.221220  
      49A    -11.219982    50A    -11.219831    51A    -11.219339  
      52A    -11.218983    53A    -11.218925    54A    -11.218921  
      55A    -11.218016    56A    -11.217335    57A    -11.217148  
      58A    -11.217148    59A    -11.217059    60A    -11.216978  
      61A    -11.216842    62A    -11.216085    63A    -11.215056  
      64A    -11.214991    65A    -11.214829    66A    -11.213359  
      67A    -11.205810    68A    -11.202195    69A     -9.842427  
      70A     -9.841307    71A     -9.838889    72A     -9.838057  
      73A     -7.459938    74A     -7.458765    75A     -7.456343  
      76A     -7.455450    77A     -7.449555    78A     -7.449381  
      79A     -7.448443    80A     -7.448292    81A     -7.446058  
      82A     -7.445891    83A     -7.445244    84A     -7.445061  
      85A     -3.202577    86A     -3.201393    87A     -3.198961  
      88A     -3.198070    89A     -3.198047    90A     -3.197723  
      91A     -3.196900    92A     -3.196601    93A     -3.194480  
      94A     -3.194166    95A     -3.193643    96A     -3.193316  
      97A     -3.186775    98A     -3.186773    99A     -3.185692  
     100A     -3.185690   101A     -3.183316   102A     -3.183314  
     103A     -3.182509   104A     -3.182507   105A     -1.399371  
     106A     -1.399343   107A     -1.294952   108A     -1.294842  
     109A     -1.226674   110A     -1.225707   111A     -1.219618  
     112A     -1.218997   113A     -1.202114   114A     -1.197796  
     115A     -1.145549   116A     -1.144383   117A     -1.110527  
     118A     -1.109702   119A     -1.091474   120A     -1.090915  
     121A     -1.084509   122A     -1.084456   123A     -1.080586  
     124A     -1.078333   125A     -1.076940   126A     -1.076098  
     127A     -1.067754   128A     -1.063661   129A     -1.003899  
     130A     -1.003782   131A     -1.000407   132A     -1.000095  
     133A     -0.940815   134A     -0.940254   135A     -0.919004  
     136A     -0.916183   137A     -0.907340   138A     -0.905489  
     139A     -0.901059   140A     -0.898366   141A     -0.882514  
     142A     -0.880224   143A     -0.867532   144A     -0.865045  
     145A     -0.846915   146A     -0.845365   147A     -0.830053  
     148A     -0.828695   149A     -0.786566   150A     -0.786316  
     151A     -0.779352   152A     -0.778008   153A     -0.755647  
     154A     -0.754707   155A     -0.745364   156A     -0.745004  
     157A     -0.715348   158A     -0.713063   159A     -0.709122  
     160A     -0.706412   161A     -0.702771   162A     -0.699920  
     163A     -0.696336   164A     -0.693673   165A     -0.682821  
     166A     -0.682353   167A     -0.670059   168A     -0.669944  
     169A     -0.664913   170A     -0.663178   171A     -0.661285  
     172A     -0.658594   173A     -0.657745   174A     -0.657546  
     175A     -0.651619   176A     -0.650702   177A     -0.629136  
     178A     -0.625688   179A     -0.612874   180A     -0.610529  
     181A     -0.609864   182A     -0.609382   183A     -0.594669  
     184A     -0.593078   185A     -0.586519   186A     -0.586296  
     187A     -0.583448   188A     -0.582850   189A     -0.580537  
     190A     -0.579520   191A     -0.564255   192A     -0.563624  
     193A     -0.555389   194A     -0.554282   195A     -0.550247  
     196A     -0.549077   197A     -0.544013   198A     -0.543461  
     199A     -0.541069   200A     -0.540587   201A     -0.515587  
     202A     -0.511966   203A     -0.509134   204A     -0.509014  
     205A     -0.505549   206A     -0.504929   207A     -0.480259  
     208A     -0.478165   209A     -0.448276   210A     -0.446518  
     211A     -0.429591   212A     -0.429544   213A     -0.428031  
     214A     -0.424154   215A     -0.420875   216A     -0.420072  
     217A     -0.418897   218A     -0.417637   219A     -0.416862  
     220A     -0.415676   221A     -0.395592   222A     -0.395475  
     223A     -0.392519   224A     -0.388857   225A     -0.381450  
     226A     -0.379657   227A     -0.378179   228A     -0.374921  
     229A     -0.340651   230A     -0.338121   231A     -0.336714  
     232A     -0.329762  

    Virtual:                                                              

     233A      0.061770   234A      0.062736   235A      0.078450  
     236A      0.088977   237A      0.123886   238A      0.124182  
     239A      0.144806   240A      0.149515   241A      0.149574  
     242A      0.153785   243A      0.163259   244A      0.167448  
     245A      0.194704   246A      0.196534   247A      0.197855  
     248A      0.199775   249A      0.206992   250A      0.210480  
     251A      0.254935   252A      0.258632   253A      0.310718  
     254A      0.311569   255A      0.403508   256A      0.407250  
     257A      0.412371   258A      0.413903   259A      0.435517  
     260A      0.435564   261A      0.475086   262A      0.479146  
     263A      0.488010   264A      0.494182   265A      0.495808  
     266A      0.504248   267A      0.529970   268A      0.536139  
     269A      0.594275   270A      0.597704   271A      0.607167  
     272A      0.608022   273A      0.612563   274A      0.613041  
     275A      0.620873   276A      0.622849   277A      0.629531  
     278A      0.632729   279A      0.647893   280A      0.665821  
     281A      0.670051   282A      0.670880   283A      0.672633  
     284A      0.674422   285A      0.680034   286A      0.680588  
     287A      0.683236   288A      0.689062   289A      0.697286  
     290A      0.704358   291A      0.705313   292A      0.707985  
     293A      0.714019   294A      0.723721   295A      0.725098  
     296A      0.730973   297A      0.732150   298A      0.732992  
     299A      0.735098   300A      0.736063   301A      0.736120  
     302A      0.737935   303A      0.739241   304A      0.740553  
     305A      0.750515   306A      0.751287   307A      0.756367  
     308A      0.756657   309A      0.756668   310A      0.763129  
     311A      0.765451   312A      0.766018   313A      0.770738  
     314A      0.773545   315A      0.785980   316A      0.789705  
     317A      0.800024   318A      0.801399   319A      0.805648  
     320A      0.809224   321A      0.822993   322A      0.833994  
     323A      0.834906   324A      0.846159   325A      0.846415  
     326A      0.850399   327A      0.852665   328A      0.859310  
     329A      0.860426   330A      0.863711   331A      0.866718  
     332A      0.871324   333A      0.872278   334A      0.872795  
     335A      0.886413   336A      0.886758   337A      0.891882  
     338A      0.892712   339A      0.899589   340A      0.903796  
     341A      0.910178   342A      0.912682   343A      0.927780  
     344A      0.929299   345A      0.943363   346A      0.944241  
     347A      0.962048   348A      0.965641   349A      0.997991  
     350A      0.998094   351A      1.007378   352A      1.009364  
     353A      1.015583   354A      1.016541   355A      1.022793  
     356A      1.023044   357A      1.034679   358A      1.040484  
     359A      1.042972   360A      1.044007   361A      1.052607  
     362A      1.057268   363A      1.083803   364A      1.087382  
     365A      1.093124   366A      1.099691   367A      1.111438  
     368A      1.113117   369A      1.136979   370A      1.138983  
     371A      1.142403   372A      1.148183   373A      1.190982  
     374A      1.195417   375A      1.205864   376A      1.208027  
     377A      1.210378   378A      1.213113   379A      3.893244  
     380A      3.894096   381A      3.894279   382A      3.895182  
     383A      3.896546   384A      3.897408   385A      3.897442  
     386A      3.897573   387A      3.897969   388A      3.898274  
     389A      3.900634   390A      3.900759   391A      3.903234  
     392A      3.903453   393A      3.906259   394A      3.906301  
     395A      4.058703   396A      4.059902   397A      4.061372  
     398A      4.062942  

    Final Occupation by Irrep:
              A 
    DOCC [   232 ]
    NA   [   232 ]
    NB   [   232 ]

  @DF-RHF Final Energy: -12217.49350418921495

   => Energetics <=

    Nuclear Repulsion Energy =           6749.1752962766931887
    One-Electron Energy =              -30382.5430387941341905
    Two-Electron Energy =               11416.7585270635081542
    Total Energy =                     -12217.4935041892149457

Computation Completed


Properties will be evaluated at   0.000000,   0.000000,   0.000000 [a0]

Properties computed using the SCF density matrix


 Multipole Moments:

 ------------------------------------------------------------------------------------
     Multipole            Electronic (a.u.)      Nuclear  (a.u.)        Total (a.u.)
 ------------------------------------------------------------------------------------

 L = 1.  Multiply by 2.5417464519 to convert [e a0] to [Debye]
 Dipole X            :      -4619.9211599         4619.9021060           -0.0190539
 Dipole Y            :        -64.5647476           64.6135554            0.0488078
 Dipole Z            :       -335.6293276          335.5451962           -0.0841314
 Magnitude           :                                                    0.0991128

 ------------------------------------------------------------------------------------

*** tstop() called on gn02.cluster.hpc.lamcad.ufg.br at Wed Jul 26 15:14:41 2023
Module time:
	user time   =     578.33 seconds =       9.64 minutes
	system time =      27.16 seconds =       0.45 minutes
	total time  =        142 seconds =       2.37 minutes
Total time:
	user time   =     735.30 seconds =      12.25 minutes
	system time =      40.13 seconds =       0.67 minutes
	total time  =        181 seconds =       3.02 minutes

    Psi4 stopped on: Wednesday, 26 July 2023 03:14PM
    Psi4 wall time for execution: 0:02:22.73


  //>>>>>>>>>>>>>>>>>>>>>>>>>>>>>>>>>>>//
  //          ManyBody Results         //
  //<<<<<<<<<<<<<<<<<<<<<<<<<<<<<<<<<<<//


   ==> N-Body: Non-Counterpoise Corrected (NoCP) energies <==

        n-Body     Total Energy            Interaction Energy                          N-body Contribution to Interaction Energy
                   [Eh]                    [Eh]                  [kcal/mol]            [Eh]                  [kcal/mol]
             1   -12217.492695380439        0.000000000000        0.000000000000        0.000000000000        0.000000000000
  FULL/RTN   2   -12217.493504189215       -0.000808808776       -0.507535169495       -0.000808808776       -0.507535169495


    Psi4 stopped on: Wednesday, 26 July 2023 03:14PM
    Psi4 wall time for execution: 0:03:04.27

*** Psi4 exiting successfully. Buy a developer a beer!
