 Entering Gaussian System, Link 0=g16
 Input=MK_link.gjf
 Output=MK_link.log
 Initial command:
 /home/phfmatias/G16/g16/l1.exe "/home/phfmatias/Gaussian_Scratch/Gau-263705.inp" -scrdir="/home/phfmatias/Gaussian_Scratch/"
 Entering Link 1 = /home/phfmatias/G16/g16/l1.exe PID=    263707.
  
 Copyright (c) 1988-2017, Gaussian, Inc.  All Rights Reserved.
  
 This is part of the Gaussian(R) 16 program.  It is based on
 the Gaussian(R) 09 system (copyright 2009, Gaussian, Inc.),
 the Gaussian(R) 03 system (copyright 2003, Gaussian, Inc.),
 the Gaussian(R) 98 system (copyright 1998, Gaussian, Inc.),
 the Gaussian(R) 94 system (copyright 1995, Gaussian, Inc.),
 the Gaussian 92(TM) system (copyright 1992, Gaussian, Inc.),
 the Gaussian 90(TM) system (copyright 1990, Gaussian, Inc.),
 the Gaussian 88(TM) system (copyright 1988, Gaussian, Inc.),
 the Gaussian 86(TM) system (copyright 1986, Carnegie Mellon
 University), and the Gaussian 82(TM) system (copyright 1983,
 Carnegie Mellon University). Gaussian is a federally registered
 trademark of Gaussian, Inc.
  
 This software contains proprietary and confidential information,
 including trade secrets, belonging to Gaussian, Inc.
  
 This software is provided under written license and may be
 used, copied, transmitted, or stored only in accord with that
 written license.
  
 The following legend is applicable only to US Government
 contracts under FAR:
  
                    RESTRICTED RIGHTS LEGEND
  
 Use, reproduction and disclosure by the US Government is
 subject to restrictions as set forth in subparagraphs (a)
 and (c) of the Commercial Computer Software - Restricted
 Rights clause in FAR 52.227-19.
  
 Gaussian, Inc.
 340 Quinnipiac St., Bldg. 40, Wallingford CT 06492
  
  
 ---------------------------------------------------------------
 Warning -- This program may not be used in any manner that
 competes with the business of Gaussian, Inc. or will provide
 assistance to any competitor of Gaussian, Inc.  The licensee
 of this program is prohibited from giving any competitor of
 Gaussian, Inc. access to this program.  By using this program,
 the user acknowledges that Gaussian, Inc. is engaged in the
 business of creating and licensing software in the field of
 computational chemistry and represents and warrants to the
 licensee that it is not a competitor of Gaussian, Inc. and that
 it will not use this program in any manner prohibited above.
 ---------------------------------------------------------------
  

 Cite this work as:
 Gaussian 16, Revision B.01,
 M. J. Frisch, G. W. Trucks, H. B. Schlegel, G. E. Scuseria, 
 M. A. Robb, J. R. Cheeseman, G. Scalmani, V. Barone, 
 G. A. Petersson, H. Nakatsuji, X. Li, M. Caricato, A. V. Marenich, 
 J. Bloino, B. G. Janesko, R. Gomperts, B. Mennucci, H. P. Hratchian, 
 J. V. Ortiz, A. F. Izmaylov, J. L. Sonnenberg, D. Williams-Young, 
 F. Ding, F. Lipparini, F. Egidi, J. Goings, B. Peng, A. Petrone, 
 T. Henderson, D. Ranasinghe, V. G. Zakrzewski, J. Gao, N. Rega, 
 G. Zheng, W. Liang, M. Hada, M. Ehara, K. Toyota, R. Fukuda, 
 J. Hasegawa, M. Ishida, T. Nakajima, Y. Honda, O. Kitao, H. Nakai, 
 T. Vreven, K. Throssell, J. A. Montgomery, Jr., J. E. Peralta, 
 F. Ogliaro, M. J. Bearpark, J. J. Heyd, E. N. Brothers, K. N. Kudin, 
 V. N. Staroverov, T. A. Keith, R. Kobayashi, J. Normand, 
 K. Raghavachari, A. P. Rendell, J. C. Burant, S. S. Iyengar, 
 J. Tomasi, M. Cossi, J. M. Millam, M. Klene, C. Adamo, R. Cammi, 
 J. W. Ochterski, R. L. Martin, K. Morokuma, O. Farkas, 
 J. B. Foresman, and D. J. Fox, Gaussian, Inc., Wallingford CT, 2016.
 
 ******************************************
 Gaussian 16:  EM64L-G16RevB.01 20-Dec-2017
                 2-Feb-2024 
 ******************************************
 %chk=teste1.chk
 ----------------------
 #p opt b3lyp/6-31+g(d)
 ----------------------
 1/18=20,19=15,26=3,38=1/1,3;
 2/9=110,12=2,17=6,18=5,40=1/2;
 3/5=1,6=6,7=11,11=2,25=1,30=1,71=1,74=-5/1,2,3;
 4//1;
 5/5=2,38=5/2;
 6/7=2,8=2,9=2,10=2,28=1/1;
 7//1,2,3,16;
 1/18=20,19=15,26=3/3(2);
 2/9=110/2;
 99//99;
 2/9=110/2;
 3/5=1,6=6,7=11,11=2,25=1,30=1,71=1,74=-5/1,2,3;
 4/5=5,16=3,69=1/1;
 5/5=2,38=5/2;
 7//1,2,3,16;
 1/18=20,19=15,26=3/3(-5);
 2/9=110/2;
 6/7=2,8=2,9=2,10=2,19=2,28=1/1;
 99/9=1/99;
 Leave Link    1 at Fri Feb  2 15:56:00 2024, MaxMem=           0 cpu:               0.0 elap:               0.0
 (Enter /home/phfmatias/G16/g16/l101.exe)
 ---------------
 Test Job for MK
 ---------------
 Symbolic Z-matrix:
 Charge =  0 Multiplicity = 1
 C                     1.2248   -0.22344   0.00001 
 H                     2.07921   0.46643  -0.00001 
 H                     1.29306  -0.86282  -0.88884 
 H                     1.29306  -0.86279   0.88887 
 C                    -0.08252   0.55137  0. 
 H                    -0.1437    1.19802  -0.89136 
 H                    -0.14371   1.19803   0.89134 
 O                    -1.1541   -0.39724  -0.00001 
 H                    -1.99884   0.07343   0.00007 
 
 ITRead=  0  0  0  0  0  0  0  0  0
 MicOpt= -1 -1 -1 -1 -1 -1 -1 -1 -1
 NAtoms=      9 NQM=        9 NQMF=       0 NMMI=      0 NMMIF=      0
                NMic=       0 NMicF=      0.
                    Isotopes and Nuclear Properties:
 (Nuclear quadrupole moments (NQMom) in fm**2, nuclear magnetic moments (NMagM)
  in nuclear magnetons)

  Atom         1           2           3           4           5           6           7           8           9
 IAtWgt=          12           1           1           1          12           1           1          16           1
 AtmWgt=  12.0000000   1.0078250   1.0078250   1.0078250  12.0000000   1.0078250   1.0078250  15.9949146   1.0078250
 NucSpn=           0           1           1           1           0           1           1           0           1
 AtZEff=  -0.0000000  -0.0000000  -0.0000000  -0.0000000  -0.0000000  -0.0000000  -0.0000000  -0.0000000  -0.0000000
 NQMom=    0.0000000   0.0000000   0.0000000   0.0000000   0.0000000   0.0000000   0.0000000   0.0000000   0.0000000
 NMagM=    0.0000000   2.7928460   2.7928460   2.7928460   0.0000000   2.7928460   2.7928460   0.0000000   2.7928460
 AtZNuc=   6.0000000   1.0000000   1.0000000   1.0000000   6.0000000   1.0000000   1.0000000   8.0000000   1.0000000
 Leave Link  101 at Fri Feb  2 15:56:00 2024, MaxMem=   104857600 cpu:               0.2 elap:               0.2
 (Enter /home/phfmatias/G16/g16/l103.exe)

 GradGradGradGradGradGradGradGradGradGradGradGradGradGradGradGradGradGrad
 Berny optimization.
 Initialization pass.
                           ----------------------------
                           !    Initial Parameters    !
                           ! (Angstroms and Degrees)  !
 --------------------------                            --------------------------
 ! Name  Definition              Value          Derivative Info.                !
 --------------------------------------------------------------------------------
 ! R1    R(1,2)                  1.0982         estimate D2E/DX2                !
 ! R2    R(1,3)                  1.0971         estimate D2E/DX2                !
 ! R3    R(1,4)                  1.0971         estimate D2E/DX2                !
 ! R4    R(1,5)                  1.5197         estimate D2E/DX2                !
 ! R5    R(5,6)                  1.1029         estimate D2E/DX2                !
 ! R6    R(5,7)                  1.1029         estimate D2E/DX2                !
 ! R7    R(5,8)                  1.4311         estimate D2E/DX2                !
 ! R8    R(8,9)                  0.967          estimate D2E/DX2                !
 ! A1    A(2,1,3)              108.525          estimate D2E/DX2                !
 ! A2    A(2,1,4)              108.5251         estimate D2E/DX2                !
 ! A3    A(2,1,5)              110.4281         estimate D2E/DX2                !
 ! A4    A(3,1,4)              108.2357         estimate D2E/DX2                !
 ! A5    A(3,1,5)              110.5281         estimate D2E/DX2                !
 ! A6    A(4,1,5)              110.528          estimate D2E/DX2                !
 ! A7    A(1,5,6)              110.2827         estimate D2E/DX2                !
 ! A8    A(1,5,7)              110.283          estimate D2E/DX2                !
 ! A9    A(1,5,8)              107.8297         estimate D2E/DX2                !
 ! A10   A(6,5,7)              107.8371         estimate D2E/DX2                !
 ! A11   A(6,5,8)              110.3096         estimate D2E/DX2                !
 ! A12   A(7,5,8)              110.3099         estimate D2E/DX2                !
 ! A13   A(5,8,9)              109.3584         estimate D2E/DX2                !
 ! D1    D(2,1,5,6)             59.4968         estimate D2E/DX2                !
 ! D2    D(2,1,5,7)            -59.4982         estimate D2E/DX2                !
 ! D3    D(2,1,5,8)            179.999          estimate D2E/DX2                !
 ! D4    D(3,1,5,6)            -60.602          estimate D2E/DX2                !
 ! D5    D(3,1,5,7)           -179.5969         estimate D2E/DX2                !
 ! D6    D(3,1,5,8)             59.9002         estimate D2E/DX2                !
 ! D7    D(4,1,5,6)            179.5957         estimate D2E/DX2                !
 ! D8    D(4,1,5,7)             60.6007         estimate D2E/DX2                !
 ! D9    D(4,1,5,8)            -59.9021         estimate D2E/DX2                !
 ! D10   D(1,5,8,9)            179.9944         estimate D2E/DX2                !
 ! D11   D(6,5,8,9)            -59.5203         estimate D2E/DX2                !
 ! D12   D(7,5,8,9)             59.5084         estimate D2E/DX2                !
 --------------------------------------------------------------------------------
 Trust Radius=3.00D-01 FncErr=1.00D-07 GrdErr=1.00D-06 EigMax=2.50D+02 EigMin=1.00D-04
 Number of steps in this run=     43 maximum allowed number of steps=    100.
 GradGradGradGradGradGradGradGradGradGradGradGradGradGradGradGradGradGrad

 Leave Link  103 at Fri Feb  2 15:56:00 2024, MaxMem=   104857600 cpu:               0.0 elap:               0.0
 (Enter /home/phfmatias/G16/g16/l202.exe)
                          Input orientation:                          
 ---------------------------------------------------------------------
 Center     Atomic      Atomic             Coordinates (Angstroms)
 Number     Number       Type             X           Y           Z
 ---------------------------------------------------------------------
      1          6           0        1.224802   -0.223436    0.000005
      2          1           0        2.079213    0.466434   -0.000008
      3          1           0        1.293055   -0.862820   -0.888843
      4          1           0        1.293057   -0.862793    0.888872
      5          6           0       -0.082521    0.551368   -0.000004
      6          1           0       -0.143698    1.198016   -0.891360
      7          1           0       -0.143711    1.198027    0.891341
      8          8           0       -1.154095   -0.397235   -0.000010
      9          1           0       -1.998844    0.073428    0.000074
 ---------------------------------------------------------------------
                    Distance matrix (angstroms):
                    1          2          3          4          5
     1  C    0.000000
     2  H    1.098152   0.000000
     3  H    1.097051   1.781850   0.000000
     4  H    1.097051   1.781851   1.777715   0.000000
     5  C    1.519676   2.163402   2.163833   2.163831   0.000000
     6  H    2.165144   2.504207   2.512232   3.079030   1.102911
     7  H    2.165148   2.504221   3.079033   2.512228   1.102909
     8  O    2.385237   3.346671   2.644870   2.644883   1.431125
     9  H    3.237286   4.096950   3.536005   3.535970   1.975024
                    6          7          8          9
     6  H    0.000000
     7  H    1.782701   0.000000
     8  O    2.088117   2.088120   0.000000
     9  H    2.345404   2.345335   0.967018   0.000000
 Stoichiometry    C2H6O
 Framework group  C1[X(C2H6O)]
 Deg. of freedom    21
 Full point group                 C1      NOp   1
 Largest Abelian subgroup         C1      NOp   1
 Largest concise Abelian subgroup C1      NOp   1
                         Standard orientation:                         
 ---------------------------------------------------------------------
 Center     Atomic      Atomic             Coordinates (Angstroms)
 Number     Number       Type             X           Y           Z
 ---------------------------------------------------------------------
      1          6           0        1.224802   -0.223436    0.000005
      2          1           0        2.079213    0.466434   -0.000008
      3          1           0        1.293055   -0.862820   -0.888843
      4          1           0        1.293057   -0.862793    0.888872
      5          6           0       -0.082521    0.551368   -0.000004
      6          1           0       -0.143698    1.198016   -0.891360
      7          1           0       -0.143711    1.198027    0.891341
      8          8           0       -1.154095   -0.397235   -0.000010
      9          1           0       -1.998844    0.073428    0.000074
 ---------------------------------------------------------------------
 Rotational constants (GHZ):          34.8983529           9.3025297           8.0963474
 Leave Link  202 at Fri Feb  2 15:56:00 2024, MaxMem=   104857600 cpu:               0.0 elap:               0.0
 (Enter /home/phfmatias/G16/g16/l301.exe)
 Standard basis: 6-31+G(d) (6D, 7F)
 Ernie: Thresh=  0.10000D-02 Tol=  0.10000D-05 Strict=F.
 There are    69 symmetry adapted cartesian basis functions of A   symmetry.
 There are    69 symmetry adapted basis functions of A   symmetry.
    69 basis functions,   120 primitive gaussians,    69 cartesian basis functions
    13 alpha electrons       13 beta electrons
       nuclear repulsion energy        81.4489106295 Hartrees.
 IExCor=  402 DFT=T Ex+Corr=B3LYP ExCW=0 ScaHFX=  0.200000
 ScaDFX=  0.800000  0.720000  1.000000  0.810000 ScalE2=  1.000000  1.000000
 IRadAn=      5 IRanWt=     -1 IRanGd=            0 ICorTp=0 IEmpDi=  4
 NAtoms=    9 NActive=    9 NUniq=    9 SFac= 1.00D+00 NAtFMM=   60 NAOKFM=F Big=F
 Integral buffers will be    131072 words long.
 Raffenetti 2 integral format.
 Two-electron integral symmetry is turned on.
 Leave Link  301 at Fri Feb  2 15:56:00 2024, MaxMem=   104857600 cpu:               0.0 elap:               0.0
 (Enter /home/phfmatias/G16/g16/l302.exe)
 NPDir=0 NMtPBC=     1 NCelOv=     1 NCel=       1 NClECP=     1 NCelD=      1
         NCelK=      1 NCelE2=     1 NClLst=     1 CellRange=     0.0.
 One-electron integrals computed using PRISM.
 One-electron integral symmetry used in STVInt
 NBasis=    69 RedAO= T EigKep=  2.61D-04  NBF=    69
 NBsUse=    69 1.00D-06 EigRej= -1.00D+00 NBFU=    69
 Precomputing XC quadrature grid using
 IXCGrd= 4 IRadAn=           5 IRanWt=          -1 IRanGd=           0 AccXCQ= 0.00D+00.
 Generated NRdTot=       0 NPtTot=           0 NUsed=           0 NTot=          32
 NSgBfM=    69    69    69    69    69 MxSgAt=     9 MxSgA2=     9.
 Leave Link  302 at Fri Feb  2 15:56:00 2024, MaxMem=   104857600 cpu:               0.2 elap:               0.1
 (Enter /home/phfmatias/G16/g16/l303.exe)
 DipDrv:  MaxL=1.
 Leave Link  303 at Fri Feb  2 15:56:00 2024, MaxMem=   104857600 cpu:               0.0 elap:               0.0
 (Enter /home/phfmatias/G16/g16/l401.exe)
 ExpMin= 4.38D-02 ExpMax= 5.48D+03 ExpMxC= 8.25D+02 IAcc=3 IRadAn=         5 AccDes= 0.00D+00
 Harris functional with IExCor=  402 and IRadAn=       5 diagonalized for initial guess.
 HarFok:  IExCor=  402 AccDes= 0.00D+00 IRadAn=         5 IDoV= 1 UseB2=F ITyADJ=14
 ICtDFT=  3500011 ScaDFX=  1.000000  1.000000  1.000000  1.000000
 FoFCou: FMM=F IPFlag=           0 FMFlag=      100000 FMFlg1=           0
         NFxFlg=           0 DoJE=T BraDBF=F KetDBF=T FulRan=T
         wScrn=  0.000000 ICntrl=       500 IOpCl=  0 I1Cent=   200000004 NGrid=           0
         NMat0=    1 NMatS0=      1 NMatT0=    0 NMatD0=    1 NMtDS0=    0 NMtDT0=    0
 Petite list used in FoFCou.
 Harris En= -155.080592361122    
 JPrj=0 DoOrth=F DoCkMO=F.
 Leave Link  401 at Fri Feb  2 15:56:01 2024, MaxMem=   104857600 cpu:               1.0 elap:               1.0
 (Enter /home/phfmatias/G16/g16/l502.exe)
 Keep R1 ints in memory in canonical form, NReq=3811562.
 FoFCou: FMM=F IPFlag=           0 FMFlag=           0 FMFlg1=           0
         NFxFlg=           0 DoJE=F BraDBF=F KetDBF=F FulRan=T
         wScrn=  0.000000 ICntrl=       600 IOpCl=  0 I1Cent=           0 NGrid=           0
         NMat0=    1 NMatS0=   2415 NMatT0=    0 NMatD0=    1 NMtDS0=    0 NMtDT0=    0
 Symmetry not used in FoFCou.
 Two-electron integral symmetry not used.
 Closed shell SCF:
 Using DIIS extrapolation, IDIIS=  1040.
 NGot=   104857600 LenX=   101929389 LenY=   101924187
 Requested convergence on RMS density matrix=1.00D-08 within 128 cycles.
 Requested convergence on MAX density matrix=1.00D-06.
 Requested convergence on             energy=1.00D-06.
 No special actions if energy rises.

 Cycle   1  Pass 1  IDiag  1:
 E= -154.920074356843    
 DIIS: error= 4.05D-02 at cycle   1 NSaved=   1.
 NSaved= 1 IEnMin= 1 EnMin= -154.920074356843     IErMin= 1 ErrMin= 4.05D-02
 ErrMax= 4.05D-02  0.00D+00 EMaxC= 1.00D-01 BMatC= 1.29D-01 BMatP= 1.29D-01
 IDIUse=3 WtCom= 5.95D-01 WtEn= 4.05D-01
 Coeff-Com:  0.100D+01
 Coeff-En:   0.100D+01
 Coeff:      0.100D+01
 Gap=     0.187 Goal=   None    Shift=    0.000
 GapD=    0.187 DampG=1.000 DampE=0.500 DampFc=0.5000 IDamp=-1.
 Damping current iteration by 5.00D-01
 RMSDP=1.42D-02 MaxDP=1.59D-01              OVMax= 1.83D-01

 Cycle   2  Pass 1  IDiag  1:
 E= -154.964541691772     Delta-E=       -0.044467334929 Rises=F Damp=T
 DIIS: error= 1.09D-02 at cycle   2 NSaved=   2.
 NSaved= 2 IEnMin= 2 EnMin= -154.964541691772     IErMin= 2 ErrMin= 1.09D-02
 ErrMax= 1.09D-02  0.00D+00 EMaxC= 1.00D-01 BMatC= 1.10D-02 BMatP= 1.29D-01
 IDIUse=3 WtCom= 8.91D-01 WtEn= 1.09D-01
 Coeff-Com:  0.171D+00 0.829D+00
 Coeff-En:   0.268D+00 0.732D+00
 Coeff:      0.182D+00 0.818D+00
 Gap=     0.291 Goal=   None    Shift=    0.000
 RMSDP=3.75D-03 MaxDP=7.49D-02 DE=-4.45D-02 OVMax= 1.15D-01

 Cycle   3  Pass 1  IDiag  1:
 E= -155.042569324070     Delta-E=       -0.078027632298 Rises=F Damp=F
 DIIS: error= 5.99D-03 at cycle   3 NSaved=   3.
 NSaved= 3 IEnMin= 3 EnMin= -155.042569324070     IErMin= 3 ErrMin= 5.99D-03
 ErrMax= 5.99D-03  0.00D+00 EMaxC= 1.00D-01 BMatC= 3.73D-03 BMatP= 1.10D-02
 IDIUse=3 WtCom= 9.40D-01 WtEn= 5.99D-02
 Coeff-Com:  0.515D-01 0.371D+00 0.577D+00
 Coeff-En:   0.000D+00 0.000D+00 0.100D+01
 Coeff:      0.484D-01 0.349D+00 0.603D+00
 Gap=     0.277 Goal=   None    Shift=    0.000
 RMSDP=1.02D-03 MaxDP=1.48D-02 DE=-7.80D-02 OVMax= 1.69D-02

 Cycle   4  Pass 1  IDiag  1:
 E= -155.044911947323     Delta-E=       -0.002342623253 Rises=F Damp=F
 DIIS: error= 2.58D-03 at cycle   4 NSaved=   4.
 NSaved= 4 IEnMin= 4 EnMin= -155.044911947323     IErMin= 4 ErrMin= 2.58D-03
 ErrMax= 2.58D-03  0.00D+00 EMaxC= 1.00D-01 BMatC= 8.39D-04 BMatP= 3.73D-03
 IDIUse=3 WtCom= 9.74D-01 WtEn= 2.58D-02
 Coeff-Com:  0.135D-02 0.580D-01 0.330D+00 0.611D+00
 Coeff-En:   0.000D+00 0.000D+00 0.192D+00 0.808D+00
 Coeff:      0.131D-02 0.565D-01 0.326D+00 0.616D+00
 Gap=     0.278 Goal=   None    Shift=    0.000
 RMSDP=3.63D-04 MaxDP=4.72D-03 DE=-2.34D-03 OVMax= 5.66D-03

 Cycle   5  Pass 1  IDiag  1:
 E= -155.045601485059     Delta-E=       -0.000689537735 Rises=F Damp=F
 DIIS: error= 3.23D-04 at cycle   5 NSaved=   5.
 NSaved= 5 IEnMin= 5 EnMin= -155.045601485059     IErMin= 5 ErrMin= 3.23D-04
 ErrMax= 3.23D-04  0.00D+00 EMaxC= 1.00D-01 BMatC= 8.44D-06 BMatP= 8.39D-04
 IDIUse=3 WtCom= 9.97D-01 WtEn= 3.23D-03
 Coeff-Com: -0.115D-02 0.179D-02 0.707D-01 0.181D+00 0.747D+00
 Coeff-En:   0.000D+00 0.000D+00 0.000D+00 0.000D+00 0.100D+01
 Coeff:     -0.115D-02 0.179D-02 0.704D-01 0.181D+00 0.748D+00
 Gap=     0.279 Goal=   None    Shift=    0.000
 RMSDP=4.85D-05 MaxDP=5.17D-04 DE=-6.90D-04 OVMax= 7.52D-04

 Cycle   6  Pass 1  IDiag  1:
 E= -155.045607860750     Delta-E=       -0.000006375691 Rises=F Damp=F
 DIIS: error= 8.75D-05 at cycle   6 NSaved=   6.
 NSaved= 6 IEnMin= 6 EnMin= -155.045607860750     IErMin= 6 ErrMin= 8.75D-05
 ErrMax= 8.75D-05  0.00D+00 EMaxC= 1.00D-01 BMatC= 8.15D-07 BMatP= 8.44D-06
 IDIUse=1 WtCom= 1.00D+00 WtEn= 0.00D+00
 Coeff-Com: -0.432D-03-0.566D-03 0.263D-01 0.730D-01 0.367D+00 0.535D+00
 Coeff:     -0.432D-03-0.566D-03 0.263D-01 0.730D-01 0.367D+00 0.535D+00
 Gap=     0.278 Goal=   None    Shift=    0.000
 RMSDP=1.18D-05 MaxDP=2.16D-04 DE=-6.38D-06 OVMax= 2.38D-04

 Cycle   7  Pass 1  IDiag  1:
 E= -155.045608610762     Delta-E=       -0.000000750012 Rises=F Damp=F
 DIIS: error= 1.48D-05 at cycle   7 NSaved=   7.
 NSaved= 7 IEnMin= 7 EnMin= -155.045608610762     IErMin= 7 ErrMin= 1.48D-05
 ErrMax= 1.48D-05  0.00D+00 EMaxC= 1.00D-01 BMatC= 1.62D-08 BMatP= 8.15D-07
 IDIUse=1 WtCom= 1.00D+00 WtEn= 0.00D+00
 Coeff-Com: -0.604D-05-0.397D-03 0.344D-02 0.106D-01 0.641D-01 0.167D+00
 Coeff-Com:  0.755D+00
 Coeff:     -0.604D-05-0.397D-03 0.344D-02 0.106D-01 0.641D-01 0.167D+00
 Coeff:      0.755D+00
 Gap=     0.278 Goal=   None    Shift=    0.000
 RMSDP=2.06D-06 MaxDP=2.74D-05 DE=-7.50D-07 OVMax= 3.11D-05

 Cycle   8  Pass 1  IDiag  1:
 E= -155.045608626306     Delta-E=       -0.000000015544 Rises=F Damp=F
 DIIS: error= 2.04D-06 at cycle   8 NSaved=   8.
 NSaved= 8 IEnMin= 8 EnMin= -155.045608626306     IErMin= 8 ErrMin= 2.04D-06
 ErrMax= 2.04D-06  0.00D+00 EMaxC= 1.00D-01 BMatC= 3.38D-10 BMatP= 1.62D-08
 IDIUse=1 WtCom= 1.00D+00 WtEn= 0.00D+00
 Coeff-Com:  0.323D-04-0.654D-04-0.463D-03-0.106D-02-0.348D-02 0.130D-01
 Coeff-Com:  0.162D+00 0.830D+00
 Coeff:      0.323D-04-0.654D-04-0.463D-03-0.106D-02-0.348D-02 0.130D-01
 Coeff:      0.162D+00 0.830D+00
 Gap=     0.278 Goal=   None    Shift=    0.000
 RMSDP=5.62D-07 MaxDP=7.59D-06 DE=-1.55D-08 OVMax= 6.22D-06

 Cycle   9  Pass 1  IDiag  1:
 E= -155.045608626667     Delta-E=       -0.000000000360 Rises=F Damp=F
 DIIS: error= 3.03D-07 at cycle   9 NSaved=   9.
 NSaved= 9 IEnMin= 9 EnMin= -155.045608626667     IErMin= 9 ErrMin= 3.03D-07
 ErrMax= 3.03D-07  0.00D+00 EMaxC= 1.00D-01 BMatC= 3.81D-12 BMatP= 3.38D-10
 IDIUse=1 WtCom= 1.00D+00 WtEn= 0.00D+00
 Coeff-Com:  0.280D-05-0.202D-05-0.106D-03-0.232D-03-0.116D-02 0.867D-04
 Coeff-Com:  0.117D-01 0.967D-01 0.893D+00
 Coeff:      0.280D-05-0.202D-05-0.106D-03-0.232D-03-0.116D-02 0.867D-04
 Coeff:      0.117D-01 0.967D-01 0.893D+00
 Gap=     0.278 Goal=   None    Shift=    0.000
 RMSDP=4.86D-08 MaxDP=3.81D-07 DE=-3.60D-10 OVMax= 6.39D-07

 Cycle  10  Pass 1  IDiag  1:
 E= -155.045608626671     Delta-E=       -0.000000000004 Rises=F Damp=F
 DIIS: error= 2.61D-08 at cycle  10 NSaved=  10.
 NSaved=10 IEnMin=10 EnMin= -155.045608626671     IErMin=10 ErrMin= 2.61D-08
 ErrMax= 2.61D-08  0.00D+00 EMaxC= 1.00D-01 BMatC= 6.19D-14 BMatP= 3.81D-12
 IDIUse=1 WtCom= 1.00D+00 WtEn= 0.00D+00
 Coeff-Com: -0.544D-06 0.115D-05-0.346D-05-0.350D-05-0.555D-04-0.230D-03
 Coeff-Com: -0.156D-02-0.666D-02 0.128D+00 0.881D+00
 Coeff:     -0.544D-06 0.115D-05-0.346D-05-0.350D-05-0.555D-04-0.230D-03
 Coeff:     -0.156D-02-0.666D-02 0.128D+00 0.881D+00
 Gap=     0.278 Goal=   None    Shift=    0.000
 RMSDP=6.67D-09 MaxDP=5.64D-08 DE=-4.38D-12 OVMax= 9.02D-08

 SCF Done:  E(RB3LYP) =  -155.045608627     A.U. after   10 cycles
            NFock= 10  Conv=0.67D-08     -V/T= 2.0098
 KE= 1.535398166881D+02 PE=-5.244695119730D+02 EE= 1.344351760288D+02
 Leave Link  502 at Fri Feb  2 15:56:12 2024, MaxMem=   104857600 cpu:              10.9 elap:              11.0
 (Enter /home/phfmatias/G16/g16/l601.exe)
 Copying SCF densities to generalized density rwf, IOpCl= 0 IROHF=0.

 **********************************************************************

            Population analysis using the SCF Density.

 **********************************************************************

 Orbital symmetries:
       Occupied  (A) (A) (A) (A) (A) (A) (A) (A) (A) (A) (A) (A)
                 (A)
       Virtual   (A) (A) (A) (A) (A) (A) (A) (A) (A) (A) (A) (A)
                 (A) (A) (A) (A) (A) (A) (A) (A) (A) (A) (A) (A)
                 (A) (A) (A) (A) (A) (A) (A) (A) (A) (A) (A) (A)
                 (A) (A) (A) (A) (A) (A) (A) (A) (A) (A) (A) (A)
                 (A) (A) (A) (A) (A) (A) (A) (A)
 The electronic state is 1-A.
 Alpha  occ. eigenvalues --  -19.15701 -10.23883 -10.18011  -1.02326  -0.75255
 Alpha  occ. eigenvalues --   -0.61555  -0.52245  -0.46858  -0.40555  -0.38709
 Alpha  occ. eigenvalues --   -0.36919  -0.33751  -0.27814
 Alpha virt. eigenvalues --    0.00034   0.02613   0.03776   0.04795   0.07421
 Alpha virt. eigenvalues --    0.07996   0.08530   0.13287   0.15726   0.18022
 Alpha virt. eigenvalues --    0.18292   0.19288   0.21032   0.23123   0.24999
 Alpha virt. eigenvalues --    0.26395   0.29971   0.31306   0.31734   0.36355
 Alpha virt. eigenvalues --    0.62597   0.64102   0.65198   0.70389   0.72494
 Alpha virt. eigenvalues --    0.74827   0.91138   0.94436   0.97508   1.01149
 Alpha virt. eigenvalues --    1.06077   1.09385   1.11540   1.20230   1.20841
 Alpha virt. eigenvalues --    1.28387   1.45262   1.47347   1.52606   1.67836
 Alpha virt. eigenvalues --    1.73320   1.80649   1.92692   1.96228   2.03796
 Alpha virt. eigenvalues --    2.17682   2.24137   2.33399   2.39072   2.40200
 Alpha virt. eigenvalues --    2.52560   2.63628   2.88147   4.04249   4.21182
 Alpha virt. eigenvalues --    4.43508
          Condensed to atoms (all electrons):
               1          2          3          4          5          6
     1  C    5.679146   0.385077   0.389919   0.389919  -0.009660  -0.075643
     2  H    0.385077   0.519343  -0.027312  -0.027312  -0.049725  -0.001056
     3  H    0.389919  -0.027312   0.496114  -0.027908  -0.041361  -0.006326
     4  H    0.389919  -0.027312  -0.027908   0.496115  -0.041363   0.004710
     5  C   -0.009660  -0.049725  -0.041361  -0.041363   5.287321   0.430628
     6  H   -0.075643  -0.001056  -0.006326   0.004710   0.430628   0.595503
     7  H   -0.075625  -0.001056   0.004710  -0.006326   0.430609  -0.055146
     8  O   -0.082990   0.008130  -0.000190  -0.000190   0.153815  -0.058353
     9  H    0.036828  -0.000274  -0.000069  -0.000069  -0.044360  -0.004479
               7          8          9
     1  C   -0.075625  -0.082990   0.036828
     2  H   -0.001056   0.008130  -0.000274
     3  H    0.004710  -0.000190  -0.000069
     4  H   -0.006326  -0.000190  -0.000069
     5  C    0.430609   0.153815  -0.044360
     6  H   -0.055146  -0.058353  -0.004479
     7  H    0.595504  -0.058348  -0.004481
     8  O   -0.058348   8.519518   0.186683
     9  H   -0.004481   0.186683   0.368616
 Mulliken charges:
               1
     1  C   -0.636971
     2  H    0.194183
     3  H    0.212423
     4  H    0.212422
     5  C   -0.115906
     6  H    0.170161
     7  H    0.170159
     8  O   -0.668076
     9  H    0.461604
 Sum of Mulliken charges =  -0.00000
 Mulliken charges with hydrogens summed into heavy atoms:
               1
     1  C   -0.017942
     5  C    0.224414
     8  O   -0.206473
 Electronic spatial extent (au):  <R**2>=            195.7668
 Charge=             -0.0000 electrons
 Dipole moment (field-independent basis, Debye):
    X=             -0.1354    Y=              1.7928    Z=              0.0002  Tot=              1.7979
 Quadrupole moment (field-independent basis, Debye-Ang):
   XX=            -17.1933   YY=            -21.2042   ZZ=            -20.5949
   XY=             -2.2185   XZ=             -0.0004   YZ=              0.0000
 Traceless Quadrupole moment (field-independent basis, Debye-Ang):
   XX=              2.4708   YY=             -1.5400   ZZ=             -0.9308
   XY=             -2.2185   XZ=             -0.0004   YZ=              0.0000
 Octapole moment (field-independent basis, Debye-Ang**2):
  XXX=            -15.9278  YYY=             -0.0784  ZZZ=              0.0001  XYY=             -0.3859
  XXY=              3.0245  XXZ=              0.0008  XZZ=             -0.9880  YZZ=             -0.0500
  YYZ=             -0.0000  XYZ=             -0.0000
 Hexadecapole moment (field-independent basis, Debye-Ang**3):
 XXXX=           -137.3215 YYYY=            -62.3471 ZZZZ=            -36.0448 XXXY=             -0.5970
 XXXZ=             -0.0017 YYYX=              0.0573 YYYZ=              0.0002 ZZZX=             -0.0002
 ZZZY=              0.0000 XXYY=            -38.1035 XXZZ=            -34.7097 YYZZ=            -15.3143
 XXYZ=              0.0000 YYXZ=             -0.0001 ZZXY=             -1.2941
 N-N= 8.144891062947D+01 E-N=-5.244695110238D+02  KE= 1.535398166881D+02
 No NMR shielding tensors so no spin-rotation constants.
 Leave Link  601 at Fri Feb  2 15:56:12 2024, MaxMem=   104857600 cpu:               0.1 elap:               0.1
 (Enter /home/phfmatias/G16/g16/l701.exe)
 ... and contract with generalized density number  0.
 Compute integral first derivatives.
 Leave Link  701 at Fri Feb  2 15:56:12 2024, MaxMem=   104857600 cpu:               0.1 elap:               0.1
 (Enter /home/phfmatias/G16/g16/l702.exe)
 L702 exits ... SP integral derivatives will be done elsewhere.
 Leave Link  702 at Fri Feb  2 15:56:12 2024, MaxMem=   104857600 cpu:               0.0 elap:               0.0
 (Enter /home/phfmatias/G16/g16/l703.exe)
 Integral derivatives from FoFJK, PRISM(SPDF).
 Compute integral first derivatives, UseDBF=F ICtDFT=           0.
 Calling FoFJK, ICntrl=      2127 FMM=F ISym2X=0 I1Cent= 0 IOpClX= 0 NMat=1 NMatS=1 NMatT=0.
 FoFJK:  IHMeth= 1 ICntrl=    2127 DoSepK=F KAlg= 0 I1Cent=           0 FoldK=F
 IRaf=         0 NMat=       1 IRICut=       1 DoRegI=T DoRafI=F ISym2E= 0 IDoP0=0 IntGTp=1.
 FoFCou: FMM=F IPFlag=           0 FMFlag=      100000 FMFlg1=         800
         NFxFlg=           0 DoJE=F BraDBF=F KetDBF=F FulRan=T
         wScrn=  0.000000 ICntrl=      2127 IOpCl=  0 I1Cent=           0 NGrid=           0
         NMat0=    1 NMatS0=      1 NMatT0=    0 NMatD0=    1 NMtDS0=    0 NMtDT0=    0
 Symmetry not used in FoFCou.
 Leave Link  703 at Fri Feb  2 15:56:15 2024, MaxMem=   104857600 cpu:               2.4 elap:               2.4
 (Enter /home/phfmatias/G16/g16/l716.exe)
 Dipole        =-5.32555125D-02 7.05348678D-01 6.32271531D-05
 ***** Axes restored to original set *****
 -------------------------------------------------------------------
 Center     Atomic                   Forces (Hartrees/Bohr)
 Number     Number              X              Y              Z
 -------------------------------------------------------------------
      1        6           0.000769098   -0.000250275    0.000000389
      2        1          -0.000801818   -0.000614952    0.000000064
      3        1          -0.000073251    0.000588775    0.000770038
      4        1          -0.000072910    0.000588529   -0.000770046
      5        6          -0.000047185    0.001343699   -0.000001736
      6        1           0.000198373   -0.000701986    0.000870868
      7        1           0.000198719   -0.000702078   -0.000869914
      8        8           0.001494216   -0.001441314    0.000000631
      9        1          -0.001665243    0.001189602   -0.000000294
 -------------------------------------------------------------------
 Cartesian Forces:  Max     0.001665243 RMS     0.000780564
 Leave Link  716 at Fri Feb  2 15:56:15 2024, MaxMem=   104857600 cpu:               0.0 elap:               0.0
 (Enter /home/phfmatias/G16/g16/l103.exe)

 GradGradGradGradGradGradGradGradGradGradGradGradGradGradGradGradGradGrad
 Berny optimization.
 FormGI is forming the generalized inverse of G from B-inverse, IUseBI=4.
 Internal  Forces:  Max     0.002033657 RMS     0.000553648
 Search for a local minimum.
 Step number   1 out of a maximum of   43
 All quantities printed in internal units (Hartrees-Bohrs-Radians)
 RMS Force = .55365D-03 SwitMx=.10000D-02 MixMth= 2
 Mixed Optimization -- En-DIIS/RFO-DIIS
 Second derivative matrix not updated -- first step.
 ITU=  0
     Eigenvalues ---    0.00506   0.01280   0.05372   0.05707   0.05710
     Eigenvalues ---    0.05930   0.11107   0.13616   0.16000   0.16000
     Eigenvalues ---    0.16000   0.16000   0.21966   0.30398   0.33362
     Eigenvalues ---    0.33362   0.33887   0.34010   0.34010   0.40828
     Eigenvalues ---    0.53991
 RFO step:  Lambda=-2.66201863D-05 EMin= 5.05673857D-03
 Linear search not attempted -- first point.
 Iteration  1 RMS(Cart)=  0.00199044 RMS(Int)=  0.00000197
 Iteration  2 RMS(Cart)=  0.00000257 RMS(Int)=  0.00000047
 Iteration  3 RMS(Cart)=  0.00000000 RMS(Int)=  0.00000047
 ITry= 1 IFail=0 DXMaxC= 5.03D-03 DCOld= 1.00D+10 DXMaxT= 3.00D-01 DXLimC= 3.00D+00 Rises=F
 Variable       Old X    -DE/DX   Delta X   Delta X   Delta X     New X
                                 (Linear)    (Quad)   (Total)
    R1        2.07521  -0.00101   0.00000  -0.00298  -0.00298   2.07223
    R2        2.07313  -0.00097   0.00000  -0.00286  -0.00286   2.07027
    R3        2.07313  -0.00097   0.00000  -0.00286  -0.00286   2.07027
    R4        2.87177  -0.00031   0.00000  -0.00103  -0.00103   2.87074
    R5        2.08420  -0.00113   0.00000  -0.00338  -0.00338   2.08082
    R6        2.08420  -0.00113   0.00000  -0.00337  -0.00337   2.08082
    R7        2.70443   0.00029   0.00000   0.00072   0.00072   2.70516
    R8        1.82740   0.00203   0.00000   0.00377   0.00377   1.83117
    A1        1.89412   0.00002   0.00000   0.00006   0.00006   1.89418
    A2        1.89412   0.00002   0.00000   0.00006   0.00006   1.89418
    A3        1.92733  -0.00003   0.00000  -0.00026  -0.00026   1.92707
    A4        1.88907   0.00004   0.00000   0.00034   0.00034   1.88941
    A5        1.92908  -0.00002   0.00000  -0.00010  -0.00010   1.92898
    A6        1.92908  -0.00002   0.00000  -0.00009  -0.00009   1.92898
    A7        1.92480  -0.00019   0.00000  -0.00138  -0.00138   1.92341
    A8        1.92480  -0.00019   0.00000  -0.00139  -0.00139   1.92341
    A9        1.88198   0.00026   0.00000   0.00123   0.00123   1.88321
   A10        1.88211   0.00011   0.00000   0.00045   0.00045   1.88256
   A11        1.92527  -0.00000   0.00000   0.00054   0.00054   1.92580
   A12        1.92527  -0.00000   0.00000   0.00053   0.00053   1.92580
   A13        1.90866  -0.00042   0.00000  -0.00261  -0.00261   1.90605
    D1        1.03841  -0.00005   0.00000  -0.00059  -0.00059   1.03783
    D2       -1.03844   0.00005   0.00000   0.00059   0.00059  -1.03785
    D3        3.14158   0.00000   0.00000   0.00000   0.00000   3.14158
    D4       -1.05770  -0.00004   0.00000  -0.00044  -0.00044  -1.05814
    D5       -3.13456   0.00006   0.00000   0.00074   0.00074  -3.13381
    D6        1.04546   0.00001   0.00000   0.00016   0.00016   1.04561
    D7        3.13454  -0.00006   0.00000  -0.00074  -0.00074   3.13380
    D8        1.05768   0.00004   0.00000   0.00044   0.00044   1.05812
    D9       -1.04549  -0.00001   0.00000  -0.00015  -0.00015  -1.04564
   D10        3.14149   0.00000   0.00000   0.00002   0.00002   3.14151
   D11       -1.03883  -0.00007   0.00000  -0.00059  -0.00059  -1.03942
   D12        1.03862   0.00007   0.00000   0.00064   0.00064   1.03926
         Item               Value     Threshold  Converged?
 Maximum Force            0.002034     0.000450     NO 
 RMS     Force            0.000554     0.000300     NO 
 Maximum Displacement     0.005031     0.001800     NO 
 RMS     Displacement     0.001991     0.001200     NO 
 Predicted change in Energy=-1.330967D-05
 Lowest energy point so far.  Saving SCF results.
 GradGradGradGradGradGradGradGradGradGradGradGradGradGradGradGradGradGrad

 Leave Link  103 at Fri Feb  2 15:56:15 2024, MaxMem=   104857600 cpu:               0.0 elap:               0.0
 (Enter /home/phfmatias/G16/g16/l202.exe)
                          Input orientation:                          
 ---------------------------------------------------------------------
 Center     Atomic      Atomic             Coordinates (Angstroms)
 Number     Number       Type             X           Y           Z
 ---------------------------------------------------------------------
      1          6           0        1.224944   -0.223085    0.000006
      2          1           0        2.077373    0.466728   -0.000008
      3          1           0        1.293607   -0.861379   -0.887729
      4          1           0        1.293613   -0.861354    0.887758
      5          6           0       -0.082555    0.550352   -0.000004
      6          1           0       -0.142537    1.195855   -0.890062
      7          1           0       -0.142543    1.195866    0.890045
      8          8           0       -1.154788   -0.398083   -0.000003
      9          1           0       -1.999857    0.076090    0.000065
 ---------------------------------------------------------------------
                    Distance matrix (angstroms):
                    1          2          3          4          5
     1  C    0.000000
     2  H    1.096575   0.000000
     3  H    1.095539   1.779383   0.000000
     4  H    1.095539   1.779385   1.775487   0.000000
     5  C    1.519131   2.161546   2.162143   2.162145   0.000000
     6  H    2.162317   2.500365   2.508929   3.074943   1.101124
     7  H    2.162317   2.500373   3.074941   2.508925   1.101123
     8  O    2.386157   3.345857   2.645248   2.645260   1.431507
     9  H    3.238649   4.095901   3.537504   3.537477   1.975088
                    6          7          8          9
     6  H    0.000000
     7  H    1.780106   0.000000
     8  O    2.087461   2.087462   0.000000
     9  H    2.344320   2.344265   0.969012   0.000000
 Stoichiometry    C2H6O
 Framework group  C1[X(C2H6O)]
 Deg. of freedom    21
 Full point group                 C1      NOp   1
 RotChk:  IX=0 Diff= 8.04D-04
 Largest Abelian subgroup         C1      NOp   1
 Largest concise Abelian subgroup C1      NOp   1
                         Standard orientation:                         
 ---------------------------------------------------------------------
 Center     Atomic      Atomic             Coordinates (Angstroms)
 Number     Number       Type             X           Y           Z
 ---------------------------------------------------------------------
      1          6           0        1.224983   -0.223426    0.000003
      2          1           0        2.077804    0.465902   -0.000010
      3          1           0        1.293283   -0.861759   -0.887731
      4          1           0        1.293289   -0.861734    0.887756
      5          6           0       -0.082076    0.550755   -0.000006
      6          1           0       -0.141691    1.196292   -0.890064
      7          1           0       -0.141697    1.196303    0.890042
      8          8           0       -1.154848   -0.397071   -0.000005
      9          1           0       -1.999648    0.077583    0.000063
 ---------------------------------------------------------------------
 Rotational constants (GHZ):          34.9732051           9.2989615           8.0954204
 Leave Link  202 at Fri Feb  2 15:56:15 2024, MaxMem=   104857600 cpu:               0.0 elap:               0.0
 (Enter /home/phfmatias/G16/g16/l301.exe)
 Standard basis: 6-31+G(d) (6D, 7F)
 Ernie: Thresh=  0.10000D-02 Tol=  0.10000D-05 Strict=F.
 There are    69 symmetry adapted cartesian basis functions of A   symmetry.
 There are    69 symmetry adapted basis functions of A   symmetry.
    69 basis functions,   120 primitive gaussians,    69 cartesian basis functions
    13 alpha electrons       13 beta electrons
       nuclear repulsion energy        81.4684935750 Hartrees.
 IExCor=  402 DFT=T Ex+Corr=B3LYP ExCW=0 ScaHFX=  0.200000
 ScaDFX=  0.800000  0.720000  1.000000  0.810000 ScalE2=  1.000000  1.000000
 IRadAn=      5 IRanWt=     -1 IRanGd=            0 ICorTp=0 IEmpDi=  4
 NAtoms=    9 NActive=    9 NUniq=    9 SFac= 1.00D+00 NAtFMM=   60 NAOKFM=F Big=F
 Integral buffers will be    131072 words long.
 Raffenetti 2 integral format.
 Two-electron integral symmetry is turned on.
 Leave Link  301 at Fri Feb  2 15:56:15 2024, MaxMem=   104857600 cpu:               0.0 elap:               0.0
 (Enter /home/phfmatias/G16/g16/l302.exe)
 NPDir=0 NMtPBC=     1 NCelOv=     1 NCel=       1 NClECP=     1 NCelD=      1
         NCelK=      1 NCelE2=     1 NClLst=     1 CellRange=     0.0.
 One-electron integrals computed using PRISM.
 One-electron integral symmetry used in STVInt
 NBasis=    69 RedAO= T EigKep=  2.61D-04  NBF=    69
 NBsUse=    69 1.00D-06 EigRej= -1.00D+00 NBFU=    69
 Precomputing XC quadrature grid using
 IXCGrd= 4 IRadAn=           5 IRanWt=          -1 IRanGd=           0 AccXCQ= 0.00D+00.
 Generated NRdTot=       0 NPtTot=           0 NUsed=           0 NTot=          32
 NSgBfM=    69    69    69    69    69 MxSgAt=     9 MxSgA2=     9.
 Leave Link  302 at Fri Feb  2 15:56:15 2024, MaxMem=   104857600 cpu:               0.1 elap:               0.1
 (Enter /home/phfmatias/G16/g16/l303.exe)
 DipDrv:  MaxL=1.
 Leave Link  303 at Fri Feb  2 15:56:15 2024, MaxMem=   104857600 cpu:               0.0 elap:               0.0
 (Enter /home/phfmatias/G16/g16/l401.exe)
 Initial guess from the checkpoint file:  "teste1.chk"
 B after Tr=     0.000000    0.000000    0.000000
         Rot=    1.000000    0.000001   -0.000001    0.000186 Ang=   0.02 deg.
 Guess basis will be translated and rotated to current coordinates.
 JPrj=2 DoOrth=T DoCkMO=T.
 Leave Link  401 at Fri Feb  2 15:56:15 2024, MaxMem=   104857600 cpu:               0.1 elap:               0.1
 (Enter /home/phfmatias/G16/g16/l502.exe)
 Keep R1 ints in memory in canonical form, NReq=3811562.
 FoFCou: FMM=F IPFlag=           0 FMFlag=           0 FMFlg1=           0
         NFxFlg=           0 DoJE=F BraDBF=F KetDBF=F FulRan=T
         wScrn=  0.000000 ICntrl=       600 IOpCl=  0 I1Cent=           0 NGrid=           0
         NMat0=    1 NMatS0=   2415 NMatT0=    0 NMatD0=    1 NMtDS0=    0 NMtDT0=    0
 Symmetry not used in FoFCou.
 Two-electron integral symmetry not used.
 Closed shell SCF:
 Using DIIS extrapolation, IDIIS=  1040.
 NGot=   104857600 LenX=   101929389 LenY=   101924187
 Requested convergence on RMS density matrix=1.00D-08 within 128 cycles.
 Requested convergence on MAX density matrix=1.00D-06.
 Requested convergence on             energy=1.00D-06.
 No special actions if energy rises.

 Cycle   1  Pass 1  IDiag  1:
 E= -155.045617742124    
 DIIS: error= 1.50D-04 at cycle   1 NSaved=   1.
 NSaved= 1 IEnMin= 1 EnMin= -155.045617742124     IErMin= 1 ErrMin= 1.50D-04
 ErrMax= 1.50D-04  0.00D+00 EMaxC= 1.00D-01 BMatC= 3.46D-06 BMatP= 3.46D-06
 IDIUse=3 WtCom= 9.98D-01 WtEn= 1.50D-03
 Coeff-Com:  0.100D+01
 Coeff-En:   0.100D+01
 Coeff:      0.100D+01
 Gap=     0.748 Goal=   None    Shift=    0.000
 RMSDP=5.55D-05 MaxDP=4.84D-04              OVMax= 7.99D-04

 Cycle   2  Pass 1  IDiag  1:
 E= -155.045620527196     Delta-E=       -0.000002785072 Rises=F Damp=F
 DIIS: error= 1.42D-04 at cycle   2 NSaved=   2.
 NSaved= 2 IEnMin= 2 EnMin= -155.045620527196     IErMin= 2 ErrMin= 1.42D-04
 ErrMax= 1.42D-04  0.00D+00 EMaxC= 1.00D-01 BMatC= 1.92D-06 BMatP= 3.46D-06
 IDIUse=3 WtCom= 9.99D-01 WtEn= 1.42D-03
 Coeff-Com:  0.401D+00 0.599D+00
 Coeff-En:   0.628D-02 0.994D+00
 Coeff:      0.400D+00 0.600D+00
 Gap=     0.278 Goal=   None    Shift=    0.000
 RMSDP=2.33D-05 MaxDP=3.03D-04 DE=-2.79D-06 OVMax= 4.03D-04

 Cycle   3  Pass 1  IDiag  1:
 E= -155.045621868136     Delta-E=       -0.000001340939 Rises=F Damp=F
 DIIS: error= 6.97D-05 at cycle   3 NSaved=   3.
 NSaved= 3 IEnMin= 3 EnMin= -155.045621868136     IErMin= 3 ErrMin= 6.97D-05
 ErrMax= 6.97D-05  0.00D+00 EMaxC= 1.00D-01 BMatC= 4.80D-07 BMatP= 1.92D-06
 IDIUse=1 WtCom= 1.00D+00 WtEn= 0.00D+00
 Coeff-Com:  0.139D-01 0.330D+00 0.656D+00
 Coeff:      0.139D-01 0.330D+00 0.656D+00
 Gap=     0.278 Goal=   None    Shift=    0.000
 RMSDP=9.33D-06 MaxDP=1.56D-04 DE=-1.34D-06 OVMax= 1.56D-04

 Cycle   4  Pass 1  IDiag  1:
 E= -155.045622220521     Delta-E=       -0.000000352385 Rises=F Damp=F
 DIIS: error= 1.77D-05 at cycle   4 NSaved=   4.
 NSaved= 4 IEnMin= 4 EnMin= -155.045622220521     IErMin= 4 ErrMin= 1.77D-05
 ErrMax= 1.77D-05  0.00D+00 EMaxC= 1.00D-01 BMatC= 3.47D-08 BMatP= 4.80D-07
 IDIUse=1 WtCom= 1.00D+00 WtEn= 0.00D+00
 Coeff-Com: -0.987D-02 0.157D+00 0.360D+00 0.493D+00
 Coeff:     -0.987D-02 0.157D+00 0.360D+00 0.493D+00
 Gap=     0.278 Goal=   None    Shift=    0.000
 RMSDP=2.66D-06 MaxDP=3.79D-05 DE=-3.52D-07 OVMax= 4.32D-05

 Cycle   5  Pass 1  IDiag  1:
 E= -155.045622248441     Delta-E=       -0.000000027920 Rises=F Damp=F
 DIIS: error= 3.37D-06 at cycle   5 NSaved=   5.
 NSaved= 5 IEnMin= 5 EnMin= -155.045622248441     IErMin= 5 ErrMin= 3.37D-06
 ErrMax= 3.37D-06  0.00D+00 EMaxC= 1.00D-01 BMatC= 7.47D-10 BMatP= 3.47D-08
 IDIUse=1 WtCom= 1.00D+00 WtEn= 0.00D+00
 Coeff-Com: -0.493D-02 0.278D-01 0.704D-01 0.173D+00 0.733D+00
 Coeff:     -0.493D-02 0.278D-01 0.704D-01 0.173D+00 0.733D+00
 Gap=     0.278 Goal=   None    Shift=    0.000
 RMSDP=5.63D-07 MaxDP=4.70D-06 DE=-2.79D-08 OVMax= 7.24D-06

 Cycle   6  Pass 1  IDiag  1:
 E= -155.045622249133     Delta-E=       -0.000000000693 Rises=F Damp=F
 DIIS: error= 3.56D-07 at cycle   6 NSaved=   6.
 NSaved= 6 IEnMin= 6 EnMin= -155.045622249133     IErMin= 6 ErrMin= 3.56D-07
 ErrMax= 3.56D-07  0.00D+00 EMaxC= 1.00D-01 BMatC= 8.48D-12 BMatP= 7.47D-10
 IDIUse=1 WtCom= 1.00D+00 WtEn= 0.00D+00
 Coeff-Com: -0.473D-03-0.191D-03 0.144D-02 0.804D-02 0.111D+00 0.880D+00
 Coeff:     -0.473D-03-0.191D-03 0.144D-02 0.804D-02 0.111D+00 0.880D+00
 Gap=     0.278 Goal=   None    Shift=    0.000
 RMSDP=6.75D-08 MaxDP=6.06D-07 DE=-6.93D-10 OVMax= 1.07D-06

 Cycle   7  Pass 1  IDiag  1:
 E= -155.045622249141     Delta-E=       -0.000000000008 Rises=F Damp=F
 DIIS: error= 1.08D-07 at cycle   7 NSaved=   7.
 NSaved= 7 IEnMin= 7 EnMin= -155.045622249141     IErMin= 7 ErrMin= 1.08D-07
 ErrMax= 1.08D-07  0.00D+00 EMaxC= 1.00D-01 BMatC= 1.22D-12 BMatP= 8.48D-12
 IDIUse=1 WtCom= 1.00D+00 WtEn= 0.00D+00
 Coeff-Com: -0.288D-04-0.961D-03-0.159D-02-0.238D-02 0.220D-01 0.366D+00
 Coeff-Com:  0.617D+00
 Coeff:     -0.288D-04-0.961D-03-0.159D-02-0.238D-02 0.220D-01 0.366D+00
 Coeff:      0.617D+00
 Gap=     0.278 Goal=   None    Shift=    0.000
 RMSDP=2.00D-08 MaxDP=2.55D-07 DE=-7.84D-12 OVMax= 3.40D-07

 Cycle   8  Pass 1  IDiag  1:
 E= -155.045622249143     Delta-E=       -0.000000000002 Rises=F Damp=F
 DIIS: error= 2.97D-08 at cycle   8 NSaved=   8.
 NSaved= 8 IEnMin= 8 EnMin= -155.045622249143     IErMin= 8 ErrMin= 2.97D-08
 ErrMax= 2.97D-08  0.00D+00 EMaxC= 1.00D-01 BMatC= 9.75D-14 BMatP= 1.22D-12
 IDIUse=1 WtCom= 1.00D+00 WtEn= 0.00D+00
 Coeff-Com:  0.262D-04-0.411D-03-0.810D-03-0.173D-02-0.177D-03 0.831D-01
 Coeff-Com:  0.265D+00 0.655D+00
 Coeff:      0.262D-04-0.411D-03-0.810D-03-0.173D-02-0.177D-03 0.831D-01
 Coeff:      0.265D+00 0.655D+00
 Gap=     0.278 Goal=   None    Shift=    0.000
 RMSDP=5.12D-09 MaxDP=6.33D-08 DE=-1.53D-12 OVMax= 8.13D-08

 SCF Done:  E(RB3LYP) =  -155.045622249     A.U. after    8 cycles
            NFock=  8  Conv=0.51D-08     -V/T= 2.0098
 KE= 1.535474291547D+02 PE=-5.245155283435D+02 EE= 1.344539833646D+02
 Leave Link  502 at Fri Feb  2 15:56:24 2024, MaxMem=   104857600 cpu:               9.0 elap:               9.0
 (Enter /home/phfmatias/G16/g16/l701.exe)
 ... and contract with generalized density number  0.
 Compute integral first derivatives.
 Leave Link  701 at Fri Feb  2 15:56:24 2024, MaxMem=   104857600 cpu:               0.1 elap:               0.1
 (Enter /home/phfmatias/G16/g16/l702.exe)
 L702 exits ... SP integral derivatives will be done elsewhere.
 Leave Link  702 at Fri Feb  2 15:56:24 2024, MaxMem=   104857600 cpu:               0.0 elap:               0.0
 (Enter /home/phfmatias/G16/g16/l703.exe)
 Integral derivatives from FoFJK, PRISM(SPDF).
 Compute integral first derivatives, UseDBF=F ICtDFT=           0.
 Calling FoFJK, ICntrl=      2127 FMM=F ISym2X=0 I1Cent= 0 IOpClX= 0 NMat=1 NMatS=1 NMatT=0.
 FoFJK:  IHMeth= 1 ICntrl=    2127 DoSepK=F KAlg= 0 I1Cent=           0 FoldK=F
 IRaf=         0 NMat=       1 IRICut=       1 DoRegI=T DoRafI=F ISym2E= 0 IDoP0=0 IntGTp=1.
 FoFCou: FMM=F IPFlag=           0 FMFlag=      100000 FMFlg1=         800
         NFxFlg=           0 DoJE=F BraDBF=F KetDBF=F FulRan=T
         wScrn=  0.000000 ICntrl=      2127 IOpCl=  0 I1Cent=           0 NGrid=           0
         NMat0=    1 NMatS0=      1 NMatT0=    0 NMatD0=    1 NMtDS0=    0 NMtDT0=    0
 Symmetry not used in FoFCou.
 Leave Link  703 at Fri Feb  2 15:56:27 2024, MaxMem=   104857600 cpu:               2.9 elap:               2.9
 (Enter /home/phfmatias/G16/g16/l716.exe)
 Dipole        =-5.08836636D-02 7.07879324D-01 4.80211984D-05
 ***** Axes restored to original set *****
 -------------------------------------------------------------------
 Center     Atomic                   Forces (Hartrees/Bohr)
 Number     Number              X              Y              Z
 -------------------------------------------------------------------
      1        6           0.000063412   -0.000120096   -0.000000184
      2        1          -0.000015040    0.000036303    0.000000029
      3        1           0.000016449   -0.000015572   -0.000019950
      4        1           0.000016339   -0.000015462    0.000019895
      5        6           0.000117600    0.000376146   -0.000000099
      6        1          -0.000036479   -0.000069953   -0.000010580
      7        1          -0.000036370   -0.000069893    0.000010838
      8        8          -0.000023527   -0.000225653    0.000000426
      9        1          -0.000102383    0.000104180   -0.000000375
 -------------------------------------------------------------------
 Cartesian Forces:  Max     0.000376146 RMS     0.000098618
 Leave Link  716 at Fri Feb  2 15:56:27 2024, MaxMem=   104857600 cpu:               0.0 elap:               0.0
 (Enter /home/phfmatias/G16/g16/l103.exe)

 GradGradGradGradGradGradGradGradGradGradGradGradGradGradGradGradGradGrad
 Berny optimization.
 Using GEDIIS/GDIIS optimizer.
 FormGI is forming the generalized inverse of G from B-inverse, IUseBI=4.
 Internal  Forces:  Max     0.000174843 RMS     0.000052769
 Search for a local minimum.
 Step number   2 out of a maximum of   43
 All quantities printed in internal units (Hartrees-Bohrs-Radians)
 RMS Force = .52769D-04 SwitMx=.10000D-02 MixMth= 2
 Mixed Optimization -- En-DIIS/RFO-DIIS
 Swapping is turned off.
 Update second derivatives using D2CorX and points    1    2
 DE= -1.36D-05 DEPred=-1.33D-05 R= 1.02D+00
 TightC=F SS=  1.41D+00  RLast= 8.94D-03 DXNew= 5.0454D-01 2.6815D-02
 Trust test= 1.02D+00 RLast= 8.94D-03 DXMaxT set to 3.00D-01
 ITU=  1  0
     Eigenvalues ---    0.00506   0.01280   0.05368   0.05704   0.05710
     Eigenvalues ---    0.05987   0.11168   0.13620   0.15685   0.16000
     Eigenvalues ---    0.16000   0.16051   0.21898   0.30321   0.33099
     Eigenvalues ---    0.33362   0.33908   0.34010   0.34803   0.40798
     Eigenvalues ---    0.52495
 En-DIIS/RFO-DIIS/Sim-DIIS IScMMF=       -3 using points:     2    1
 RFO step:  Lambda=-4.21155480D-07.
 NNeg= 0 NGDIIS= 2 SimSw=  2.50D-03 Rises=F DC= -1.36D-05 SmlDif=  1.00D-05
 NRisDI= 0 DoIntr=F SqrtH=F CThrHd= 10.0 CDAdj=  3.0
 RMS Error=  0.3295905830D-03 NUsed= 2 OKEnD=T EnDIS=F
 InvSVX:  RCond= 2.00D-05 Info=           0 Equed=N FErr=  1.01D-15 BErr=  1.09D-17
 DidBck=F Rises=F RFO-DIIS coefs:    1.01595   -0.01595
 Iteration  1 RMS(Cart)=  0.00034108 RMS(Int)=  0.00000009
 Iteration  2 RMS(Cart)=  0.00000008 RMS(Int)=  0.00000004
 ITry= 1 IFail=0 DXMaxC= 1.10D-03 DCOld= 1.00D+10 DXMaxT= 3.00D-01 DXLimC= 3.00D+00 Rises=F
 Variable       Old X    -DE/DX   Delta X   Delta X   Delta X     New X
                                 (Linear)    (Quad)   (Total)
    R1        2.07223   0.00001  -0.00005   0.00004  -0.00001   2.07221
    R2        2.07027   0.00003  -0.00005   0.00008   0.00004   2.07030
    R3        2.07027   0.00003  -0.00005   0.00008   0.00004   2.07030
    R4        2.87074   0.00013  -0.00002   0.00043   0.00042   2.87116
    R5        2.08082  -0.00003  -0.00005  -0.00009  -0.00015   2.08068
    R6        2.08082  -0.00003  -0.00005  -0.00009  -0.00014   2.08068
    R7        2.70516   0.00017   0.00001   0.00044   0.00045   2.70561
    R8        1.83117   0.00014   0.00006   0.00026   0.00032   1.83149
    A1        1.89418   0.00001   0.00000   0.00000   0.00000   1.89418
    A2        1.89418   0.00001   0.00000   0.00000   0.00000   1.89419
    A3        1.92707  -0.00007  -0.00000  -0.00050  -0.00050   1.92657
    A4        1.88941  -0.00001   0.00001   0.00007   0.00007   1.88949
    A5        1.92898   0.00003  -0.00000   0.00022   0.00022   1.92920
    A6        1.92898   0.00003  -0.00000   0.00022   0.00021   1.92920
    A7        1.92341   0.00001  -0.00002   0.00018   0.00016   1.92357
    A8        1.92341   0.00001  -0.00002   0.00018   0.00016   1.92357
    A9        1.88321   0.00002   0.00002  -0.00007  -0.00005   1.88316
   A10        1.88256   0.00003   0.00001   0.00061   0.00062   1.88318
   A11        1.92580  -0.00004   0.00001  -0.00045  -0.00045   1.92536
   A12        1.92580  -0.00004   0.00001  -0.00045  -0.00045   1.92536
   A13        1.90605  -0.00007  -0.00004  -0.00048  -0.00052   1.90554
    D1        1.03783   0.00003  -0.00001   0.00049   0.00048   1.03831
    D2       -1.03785  -0.00003   0.00001  -0.00049  -0.00048  -1.03833
    D3        3.14158   0.00000   0.00000   0.00000   0.00000   3.14158
    D4       -1.05814   0.00004  -0.00001   0.00067   0.00067  -1.05747
    D5       -3.13381  -0.00002   0.00001  -0.00031  -0.00029  -3.13411
    D6        1.04561   0.00001   0.00000   0.00018   0.00018   1.04580
    D7        3.13380   0.00002  -0.00001   0.00031   0.00030   3.13409
    D8        1.05812  -0.00004   0.00001  -0.00067  -0.00066   1.05746
    D9       -1.04564  -0.00001  -0.00000  -0.00018  -0.00018  -1.04582
   D10        3.14151   0.00000   0.00000   0.00002   0.00002   3.14153
   D11       -1.03942   0.00000  -0.00001  -0.00007  -0.00008  -1.03950
   D12        1.03926  -0.00000   0.00001   0.00011   0.00012   1.03937
         Item               Value     Threshold  Converged?
 Maximum Force            0.000175     0.000450     YES
 RMS     Force            0.000053     0.000300     YES
 Maximum Displacement     0.001103     0.001800     YES
 RMS     Displacement     0.000341     0.001200     YES
 Predicted change in Energy=-2.105996D-07
 Optimization completed.
    -- Stationary point found.
                           ----------------------------
                           !   Optimized Parameters   !
                           ! (Angstroms and Degrees)  !
 --------------------------                            --------------------------
 ! Name  Definition              Value          Derivative Info.                !
 --------------------------------------------------------------------------------
 ! R1    R(1,2)                  1.0966         -DE/DX =    0.0                 !
 ! R2    R(1,3)                  1.0955         -DE/DX =    0.0                 !
 ! R3    R(1,4)                  1.0955         -DE/DX =    0.0                 !
 ! R4    R(1,5)                  1.5191         -DE/DX =    0.0001              !
 ! R5    R(5,6)                  1.1011         -DE/DX =    0.0                 !
 ! R6    R(5,7)                  1.1011         -DE/DX =    0.0                 !
 ! R7    R(5,8)                  1.4315         -DE/DX =    0.0002              !
 ! R8    R(8,9)                  0.969          -DE/DX =    0.0001              !
 ! A1    A(2,1,3)              108.5287         -DE/DX =    0.0                 !
 ! A2    A(2,1,4)              108.5288         -DE/DX =    0.0                 !
 ! A3    A(2,1,5)              110.4131         -DE/DX =   -0.0001              !
 ! A4    A(3,1,4)              108.2555         -DE/DX =    0.0                 !
 ! A5    A(3,1,5)              110.5224         -DE/DX =    0.0                 !
 ! A6    A(4,1,5)              110.5226         -DE/DX =    0.0                 !
 ! A7    A(1,5,6)              110.2034         -DE/DX =    0.0                 !
 ! A8    A(1,5,7)              110.2034         -DE/DX =    0.0                 !
 ! A9    A(1,5,8)              107.8999         -DE/DX =    0.0                 !
 ! A10   A(6,5,7)              107.8629         -DE/DX =    0.0                 !
 ! A11   A(6,5,8)              110.3403         -DE/DX =    0.0                 !
 ! A12   A(7,5,8)              110.3404         -DE/DX =    0.0                 !
 ! A13   A(5,8,9)              109.2088         -DE/DX =   -0.0001              !
 ! D1    D(2,1,5,6)             59.463          -DE/DX =    0.0                 !
 ! D2    D(2,1,5,7)            -59.4644         -DE/DX =    0.0                 !
 ! D3    D(2,1,5,8)            179.9993         -DE/DX =    0.0                 !
 ! D4    D(3,1,5,6)            -60.6269         -DE/DX =    0.0                 !
 ! D5    D(3,1,5,7)           -179.5543         -DE/DX =    0.0                 !
 ! D6    D(3,1,5,8)             59.9093         -DE/DX =    0.0                 !
 ! D7    D(4,1,5,6)            179.5532         -DE/DX =    0.0                 !
 ! D8    D(4,1,5,7)             60.6259         -DE/DX =    0.0                 !
 ! D9    D(4,1,5,8)            -59.9105         -DE/DX =    0.0                 !
 ! D10   D(1,5,8,9)            179.9954         -DE/DX =    0.0                 !
 ! D11   D(6,5,8,9)            -59.5543         -DE/DX =    0.0                 !
 ! D12   D(7,5,8,9)             59.545          -DE/DX =    0.0                 !
 --------------------------------------------------------------------------------
 Lowest energy point so far.  Saving SCF results.
 Largest change from initial coordinates is atom    9       0.004 Angstoms.
 GradGradGradGradGradGradGradGradGradGradGradGradGradGradGradGradGradGrad

 Leave Link  103 at Fri Feb  2 15:56:27 2024, MaxMem=   104857600 cpu:               0.0 elap:               0.0
 (Enter /home/phfmatias/G16/g16/l202.exe)
                          Input orientation:                          
 ---------------------------------------------------------------------
 Center     Atomic      Atomic             Coordinates (Angstroms)
 Number     Number       Type             X           Y           Z
 ---------------------------------------------------------------------
      1          6           0        1.224944   -0.223085    0.000006
      2          1           0        2.077373    0.466728   -0.000008
      3          1           0        1.293607   -0.861379   -0.887729
      4          1           0        1.293613   -0.861354    0.887758
      5          6           0       -0.082555    0.550352   -0.000004
      6          1           0       -0.142537    1.195855   -0.890062
      7          1           0       -0.142543    1.195866    0.890045
      8          8           0       -1.154788   -0.398083   -0.000003
      9          1           0       -1.999857    0.076090    0.000065
 ---------------------------------------------------------------------
                    Distance matrix (angstroms):
                    1          2          3          4          5
     1  C    0.000000
     2  H    1.096575   0.000000
     3  H    1.095539   1.779383   0.000000
     4  H    1.095539   1.779385   1.775487   0.000000
     5  C    1.519131   2.161546   2.162143   2.162145   0.000000
     6  H    2.162317   2.500365   2.508929   3.074943   1.101124
     7  H    2.162317   2.500373   3.074941   2.508925   1.101123
     8  O    2.386157   3.345857   2.645248   2.645260   1.431507
     9  H    3.238649   4.095901   3.537504   3.537477   1.975088
                    6          7          8          9
     6  H    0.000000
     7  H    1.780106   0.000000
     8  O    2.087461   2.087462   0.000000
     9  H    2.344320   2.344265   0.969012   0.000000
 Stoichiometry    C2H6O
 Framework group  C1[X(C2H6O)]
 Deg. of freedom    21
 Full point group                 C1      NOp   1
 RotChk:  IX=0 Diff= 0.00D+00
 Largest Abelian subgroup         C1      NOp   1
 Largest concise Abelian subgroup C1      NOp   1
                         Standard orientation:                         
 ---------------------------------------------------------------------
 Center     Atomic      Atomic             Coordinates (Angstroms)
 Number     Number       Type             X           Y           Z
 ---------------------------------------------------------------------
      1          6           0        1.224983   -0.223426    0.000003
      2          1           0        2.077804    0.465902   -0.000010
      3          1           0        1.293283   -0.861759   -0.887731
      4          1           0        1.293289   -0.861734    0.887756
      5          6           0       -0.082076    0.550755   -0.000006
      6          1           0       -0.141691    1.196292   -0.890064
      7          1           0       -0.141697    1.196303    0.890042
      8          8           0       -1.154848   -0.397071   -0.000005
      9          1           0       -1.999648    0.077583    0.000063
 ---------------------------------------------------------------------
 Rotational constants (GHZ):          34.9732051           9.2989615           8.0954204
 Leave Link  202 at Fri Feb  2 15:56:27 2024, MaxMem=   104857600 cpu:               0.0 elap:               0.0
 (Enter /home/phfmatias/G16/g16/l601.exe)
 Copying SCF densities to generalized density rwf, IOpCl= 0 IROHF=0.

 **********************************************************************

            Population analysis using the SCF Density.

 **********************************************************************

 Orbital symmetries:
       Occupied  (A) (A) (A) (A) (A) (A) (A) (A) (A) (A) (A) (A)
                 (A)
       Virtual   (A) (A) (A) (A) (A) (A) (A) (A) (A) (A) (A) (A)
                 (A) (A) (A) (A) (A) (A) (A) (A) (A) (A) (A) (A)
                 (A) (A) (A) (A) (A) (A) (A) (A) (A) (A) (A) (A)
                 (A) (A) (A) (A) (A) (A) (A) (A) (A) (A) (A) (A)
                 (A) (A) (A) (A) (A) (A) (A) (A)
 The electronic state is 1-A.
 Alpha  occ. eigenvalues --  -19.15718 -10.23836 -10.17958  -1.02281  -0.75283
 Alpha  occ. eigenvalues --   -0.61571  -0.52222  -0.46892  -0.40559  -0.38730
 Alpha  occ. eigenvalues --   -0.36940  -0.33757  -0.27816
 Alpha virt. eigenvalues --    0.00023   0.02614   0.03779   0.04800   0.07426
 Alpha virt. eigenvalues --    0.07999   0.08533   0.13299   0.15742   0.18058
 Alpha virt. eigenvalues --    0.18313   0.19259   0.21084   0.23109   0.25023
 Alpha virt. eigenvalues --    0.26419   0.30001   0.31295   0.31768   0.36373
 Alpha virt. eigenvalues --    0.62556   0.64103   0.65169   0.70417   0.72437
 Alpha virt. eigenvalues --    0.74782   0.91228   0.94528   0.97550   1.01220
 Alpha virt. eigenvalues --    1.05976   1.09405   1.11677   1.20246   1.20873
 Alpha virt. eigenvalues --    1.28433   1.45251   1.47389   1.52570   1.67889
 Alpha virt. eigenvalues --    1.73367   1.80630   1.92824   1.96333   2.03823
 Alpha virt. eigenvalues --    2.17763   2.24275   2.33522   2.39177   2.40356
 Alpha virt. eigenvalues --    2.52308   2.63690   2.88109   4.04214   4.21316
 Alpha virt. eigenvalues --    4.43564
          Condensed to atoms (all electrons):
               1          2          3          4          5          6
     1  C    5.679019   0.385267   0.390107   0.390108  -0.009066  -0.075819
     2  H    0.385267   0.519085  -0.027379  -0.027379  -0.049694  -0.001077
     3  H    0.390107  -0.027379   0.495916  -0.027950  -0.041384  -0.006378
     4  H    0.390108  -0.027379  -0.027950   0.495916  -0.041385   0.004751
     5  C   -0.009066  -0.049694  -0.041384  -0.041385   5.285525   0.430760
     6  H   -0.075819  -0.001077  -0.006378   0.004751   0.430760   0.595366
     7  H   -0.075805  -0.001077   0.004751  -0.006378   0.430745  -0.055344
     8  O   -0.083076   0.008130  -0.000171  -0.000170   0.154906  -0.058184
     9  H    0.036964  -0.000274  -0.000069  -0.000069  -0.044400  -0.004504
               7          8          9
     1  C   -0.075805  -0.083076   0.036964
     2  H   -0.001077   0.008130  -0.000274
     3  H    0.004751  -0.000171  -0.000069
     4  H   -0.006378  -0.000170  -0.000069
     5  C    0.430745   0.154906  -0.044400
     6  H   -0.055344  -0.058184  -0.004504
     7  H    0.595368  -0.058181  -0.004505
     8  O   -0.058181   8.517384   0.186599
     9  H   -0.004505   0.186599   0.369677
 Mulliken charges:
               1
     1  C   -0.637699
     2  H    0.194397
     3  H    0.212556
     4  H    0.212555
     5  C   -0.116007
     6  H    0.170428
     7  H    0.170426
     8  O   -0.667238
     9  H    0.460581
 Sum of Mulliken charges =   0.00000
 Mulliken charges with hydrogens summed into heavy atoms:
               1
     1  C   -0.018191
     5  C    0.224847
     8  O   -0.206657
 Electronic spatial extent (au):  <R**2>=            195.7150
 Charge=             -0.0000 electrons
 Dipole moment (field-independent basis, Debye):
    X=             -0.1293    Y=              1.7992    Z=              0.0001  Tot=              1.8039
 Quadrupole moment (field-independent basis, Debye-Ang):
   XX=            -17.1971   YY=            -21.1939   ZZ=            -20.5891
   XY=             -2.2288   XZ=             -0.0003   YZ=              0.0000
 Traceless Quadrupole moment (field-independent basis, Debye-Ang):
   XX=              2.4629   YY=             -1.5339   ZZ=             -0.9291
   XY=             -2.2288   XZ=             -0.0003   YZ=              0.0000
 Octapole moment (field-independent basis, Debye-Ang**2):
  XXX=            -15.8852  YYY=             -0.0667  ZZZ=              0.0001  XYY=             -0.3808
  XXY=              3.0630  XXZ=              0.0006  XZZ=             -0.9746  YZZ=             -0.0423
  YYZ=             -0.0000  XYZ=             -0.0000
 Hexadecapole moment (field-independent basis, Debye-Ang**3):
 XXXX=           -137.3688 YYYY=            -62.2044 ZZZZ=            -35.9686 XXXY=             -0.6885
 XXXZ=             -0.0013 YYYX=              0.0524 YYYZ=              0.0002 ZZZX=             -0.0001
 ZZZY=              0.0001 XXYY=            -38.0834 XXZZ=            -34.7039 YYZZ=            -15.2852
 XXYZ=              0.0000 YYXZ=             -0.0000 ZZXY=             -1.2904
 N-N= 8.146849357497D+01 E-N=-5.245155292573D+02  KE= 1.535474291547D+02
 No NMR shielding tensors so no spin-rotation constants.
 Leave Link  601 at Fri Feb  2 15:56:27 2024, MaxMem=   104857600 cpu:               0.1 elap:               0.1
 (Enter /home/phfmatias/G16/g16/l9999.exe)
 1\1\GINC-PHFMATIAS\FOpt\RB3LYP\6-31+G(d)\C2H6O1\PHFMATIAS\02-Feb-2024\
 0\\#p opt b3lyp/6-31+g(d)\\Test Job for MK\\0,1\C,1.2249441797,-0.2230
 850655,0.0000055243\H,2.0773733981,0.466727561,-0.0000081265\H,1.29360
 70199,-0.8613790123,-0.8877292071\H,1.2936127387,-0.8613541357,0.88775
 7739\C,-0.0825548526,0.5503522019,-0.0000038978\H,-0.1425367574,1.1958
 546595,-0.8900617457\H,-0.14254294,1.1958660655,0.8900445114\O,-1.1547
 875031,-0.3980833187,-0.0000026557\H,-1.9998572833,0.0760900442,0.0000
 648581\\Version=EM64L-G16RevB.01\State=1-A\HF=-155.0456222\RMSD=5.123e
 -09\RMSF=9.862e-05\Dipole=-0.0512862,0.7078503,0.000048\Quadrupole=1.8
 330252,-1.1422751,-0.6907501,-1.6553777,-0.0002247,0.0000231\PG=C01 [X
 (C2H6O1)]\\@


 A MAN BEGINS CUTTING HIS WISDOM TEETH THE 1ST
 TIME HE BITES OFF MORE THAN HE CAN CHEW.
 Job cpu time:       0 days  0 hours  0 minutes 27.5 seconds.
 Elapsed time:       0 days  0 hours  0 minutes 27.3 seconds.
 File lengths (MBytes):  RWF=      6 Int=      0 D2E=      0 Chk=      2 Scr=      1
 Normal termination of Gaussian 16 at Fri Feb  2 15:56:27 2024.
 Initial command:
 /home/phfmatias/G16/g16/l1.exe "/home/phfmatias/Gaussian_Scratch/Gau-263705.inp" -scrdir="/home/phfmatias/Gaussian_Scratch/"
 Entering Link 1 = /home/phfmatias/G16/g16/l1.exe PID=    264208.
  
 Copyright (c) 1988-2017, Gaussian, Inc.  All Rights Reserved.
  
 This is part of the Gaussian(R) 16 program.  It is based on
 the Gaussian(R) 09 system (copyright 2009, Gaussian, Inc.),
 the Gaussian(R) 03 system (copyright 2003, Gaussian, Inc.),
 the Gaussian(R) 98 system (copyright 1998, Gaussian, Inc.),
 the Gaussian(R) 94 system (copyright 1995, Gaussian, Inc.),
 the Gaussian 92(TM) system (copyright 1992, Gaussian, Inc.),
 the Gaussian 90(TM) system (copyright 1990, Gaussian, Inc.),
 the Gaussian 88(TM) system (copyright 1988, Gaussian, Inc.),
 the Gaussian 86(TM) system (copyright 1986, Carnegie Mellon
 University), and the Gaussian 82(TM) system (copyright 1983,
 Carnegie Mellon University). Gaussian is a federally registered
 trademark of Gaussian, Inc.
  
 This software contains proprietary and confidential information,
 including trade secrets, belonging to Gaussian, Inc.
  
 This software is provided under written license and may be
 used, copied, transmitted, or stored only in accord with that
 written license.
  
 The following legend is applicable only to US Government
 contracts under FAR:
  
                    RESTRICTED RIGHTS LEGEND
  
 Use, reproduction and disclosure by the US Government is
 subject to restrictions as set forth in subparagraphs (a)
 and (c) of the Commercial Computer Software - Restricted
 Rights clause in FAR 52.227-19.
  
 Gaussian, Inc.
 340 Quinnipiac St., Bldg. 40, Wallingford CT 06492
  
  
 ---------------------------------------------------------------
 Warning -- This program may not be used in any manner that
 competes with the business of Gaussian, Inc. or will provide
 assistance to any competitor of Gaussian, Inc.  The licensee
 of this program is prohibited from giving any competitor of
 Gaussian, Inc. access to this program.  By using this program,
 the user acknowledges that Gaussian, Inc. is engaged in the
 business of creating and licensing software in the field of
 computational chemistry and represents and warrants to the
 licensee that it is not a competitor of Gaussian, Inc. and that
 it will not use this program in any manner prohibited above.
 ---------------------------------------------------------------
  

 Cite this work as:
 Gaussian 16, Revision B.01,
 M. J. Frisch, G. W. Trucks, H. B. Schlegel, G. E. Scuseria, 
 M. A. Robb, J. R. Cheeseman, G. Scalmani, V. Barone, 
 G. A. Petersson, H. Nakatsuji, X. Li, M. Caricato, A. V. Marenich, 
 J. Bloino, B. G. Janesko, R. Gomperts, B. Mennucci, H. P. Hratchian, 
 J. V. Ortiz, A. F. Izmaylov, J. L. Sonnenberg, D. Williams-Young, 
 F. Ding, F. Lipparini, F. Egidi, J. Goings, B. Peng, A. Petrone, 
 T. Henderson, D. Ranasinghe, V. G. Zakrzewski, J. Gao, N. Rega, 
 G. Zheng, W. Liang, M. Hada, M. Ehara, K. Toyota, R. Fukuda, 
 J. Hasegawa, M. Ishida, T. Nakajima, Y. Honda, O. Kitao, H. Nakai, 
 T. Vreven, K. Throssell, J. A. Montgomery, Jr., J. E. Peralta, 
 F. Ogliaro, M. J. Bearpark, J. J. Heyd, E. N. Brothers, K. N. Kudin, 
 V. N. Staroverov, T. A. Keith, R. Kobayashi, J. Normand, 
 K. Raghavachari, A. P. Rendell, J. C. Burant, S. S. Iyengar, 
 J. Tomasi, M. Cossi, J. M. Millam, M. Klene, C. Adamo, R. Cammi, 
 J. W. Ochterski, R. L. Martin, K. Morokuma, O. Farkas, 
 J. B. Foresman, and D. J. Fox, Gaussian, Inc., Wallingford CT, 2016.
 
 ******************************************
 Gaussian 16:  EM64L-G16RevB.01 20-Dec-2017
                 2-Feb-2024 
 ******************************************
 %chk=teste1.chk
 ------------------------------------
 #p cam-b3lyp/6-31+g(d) Geom=AllCheck
 ------------------------------------
 1/29=7,38=1,172=1/1;
 2/12=2,40=1/2;
 3/5=1,6=6,7=11,11=2,14=-4,25=1,30=1,74=-40/1,2,3;
 4//1;
 5/5=2,38=5/2;
 6/7=2,8=2,9=2,10=2,28=1/1;
 99/5=1,9=1/99;
 Leave Link    1 at Fri Feb  2 15:56:27 2024, MaxMem=           0 cpu:               0.0 elap:               0.0
 (Enter /home/phfmatias/G16/g16/l101.exe)
 Structure from the checkpoint file:  "teste1.chk"
 ---------------
 Test Job for MK
 ---------------
 Charge =  0 Multiplicity = 1
 Redundant internal coordinates found in file.  (old form).
 C,0,1.2249441797,-0.2230850655,0.0000055243
 H,0,2.0773733981,0.466727561,-0.0000081265
 H,0,1.2936070199,-0.8613790123,-0.8877292071
 H,0,1.2936127387,-0.8613541357,0.887757739
 C,0,-0.0825548526,0.5503522019,-0.0000038978
 H,0,-0.1425367574,1.1958546595,-0.8900617457
 H,0,-0.14254294,1.1958660655,0.8900445114
 O,0,-1.1547875031,-0.3980833187,-0.0000026557
 H,0,-1.9998572833,0.0760900442,0.0000648581
 Recover connectivity data from disk.
 ITRead=  0  0  0  0  0  0  0  0  0
 MicOpt= -1 -1 -1 -1 -1 -1 -1 -1 -1
                           ----------------------------
                           !    Current Parameters    !
                           ! (Angstroms and Degrees)  !
 --------------------------                            --------------------------
 ! Name  Definition              Value                                          !
 --------------------------------------------------------------------------------
 ! R1    R(1,2)                  1.0966                                         !
 ! R2    R(1,3)                  1.0955                                         !
 ! R3    R(1,4)                  1.0955                                         !
 ! R4    R(1,5)                  1.5191                                         !
 ! R5    R(5,6)                  1.1011                                         !
 ! R6    R(5,7)                  1.1011                                         !
 ! R7    R(5,8)                  1.4315                                         !
 ! R8    R(8,9)                  0.969                                          !
 ! A1    A(2,1,3)              108.5287                                         !
 ! A2    A(2,1,4)              108.5288                                         !
 ! A3    A(2,1,5)              110.4131                                         !
 ! A4    A(3,1,4)              108.2555                                         !
 ! A5    A(3,1,5)              110.5224                                         !
 ! A6    A(4,1,5)              110.5226                                         !
 ! A7    A(1,5,6)              110.2034                                         !
 ! A8    A(1,5,7)              110.2034                                         !
 ! A9    A(1,5,8)              107.8999                                         !
 ! A10   A(6,5,7)              107.8629                                         !
 ! A11   A(6,5,8)              110.3403                                         !
 ! A12   A(7,5,8)              110.3404                                         !
 ! A13   A(5,8,9)              109.2088                                         !
 ! D1    D(2,1,5,6)             59.463                                          !
 ! D2    D(2,1,5,7)            -59.4644                                         !
 ! D3    D(2,1,5,8)            179.9993                                         !
 ! D4    D(3,1,5,6)            -60.6269                                         !
 ! D5    D(3,1,5,7)           -179.5543                                         !
 ! D6    D(3,1,5,8)             59.9093                                         !
 ! D7    D(4,1,5,6)            179.5532                                         !
 ! D8    D(4,1,5,7)             60.6259                                         !
 ! D9    D(4,1,5,8)            -59.9105                                         !
 ! D10   D(1,5,8,9)            179.9954                                         !
 ! D11   D(6,5,8,9)            -59.5543                                         !
 ! D12   D(7,5,8,9)             59.545                                          !
 --------------------------------------------------------------------------------
 NAtoms=      9 NQM=        9 NQMF=       0 NMMI=      0 NMMIF=      0
                NMic=       0 NMicF=      0.
                    Isotopes and Nuclear Properties:
 (Nuclear quadrupole moments (NQMom) in fm**2, nuclear magnetic moments (NMagM)
  in nuclear magnetons)

  Atom         1           2           3           4           5           6           7           8           9
 IAtWgt=          12           1           1           1          12           1           1          16           1
 AtmWgt=  12.0000000   1.0078250   1.0078250   1.0078250  12.0000000   1.0078250   1.0078250  15.9949146   1.0078250
 NucSpn=           0           1           1           1           0           1           1           0           1
 AtZEff=   3.6000000   1.0000000   1.0000000   1.0000000   3.6000000   1.0000000   1.0000000   5.6000000   1.0000000
 NQMom=    0.0000000   0.0000000   0.0000000   0.0000000   0.0000000   0.0000000   0.0000000   0.0000000   0.0000000
 NMagM=    0.0000000   2.7928460   2.7928460   2.7928460   0.0000000   2.7928460   2.7928460   0.0000000   2.7928460
 AtZNuc=   6.0000000   1.0000000   1.0000000   1.0000000   6.0000000   1.0000000   1.0000000   8.0000000   1.0000000
 Leave Link  101 at Fri Feb  2 15:56:27 2024, MaxMem=   104857600 cpu:               0.2 elap:               0.2
 (Enter /home/phfmatias/G16/g16/l202.exe)
                          Input orientation:                          
 ---------------------------------------------------------------------
 Center     Atomic      Atomic             Coordinates (Angstroms)
 Number     Number       Type             X           Y           Z
 ---------------------------------------------------------------------
      1          6           0        1.224944   -0.223085    0.000006
      2          1           0        2.077373    0.466728   -0.000008
      3          1           0        1.293607   -0.861379   -0.887729
      4          1           0        1.293613   -0.861354    0.887758
      5          6           0       -0.082555    0.550352   -0.000004
      6          1           0       -0.142537    1.195855   -0.890062
      7          1           0       -0.142543    1.195866    0.890045
      8          8           0       -1.154788   -0.398083   -0.000003
      9          1           0       -1.999857    0.076090    0.000065
 ---------------------------------------------------------------------
                    Distance matrix (angstroms):
                    1          2          3          4          5
     1  C    0.000000
     2  H    1.096575   0.000000
     3  H    1.095539   1.779383   0.000000
     4  H    1.095539   1.779385   1.775487   0.000000
     5  C    1.519131   2.161546   2.162143   2.162145   0.000000
     6  H    2.162317   2.500365   2.508929   3.074943   1.101124
     7  H    2.162317   2.500373   3.074941   2.508925   1.101123
     8  O    2.386157   3.345857   2.645248   2.645260   1.431507
     9  H    3.238649   4.095901   3.537504   3.537477   1.975088
                    6          7          8          9
     6  H    0.000000
     7  H    1.780106   0.000000
     8  O    2.087461   2.087462   0.000000
     9  H    2.344320   2.344265   0.969012   0.000000
 Stoichiometry    C2H6O
 Framework group  C1[X(C2H6O)]
 Deg. of freedom    21
 Full point group                 C1      NOp   1
 RotChk:  IX=0 Diff= 3.55D-16
 Largest Abelian subgroup         C1      NOp   1
 Largest concise Abelian subgroup C1      NOp   1
                         Standard orientation:                         
 ---------------------------------------------------------------------
 Center     Atomic      Atomic             Coordinates (Angstroms)
 Number     Number       Type             X           Y           Z
 ---------------------------------------------------------------------
      1          6           0        1.224983   -0.223426    0.000003
      2          1           0        2.077804    0.465902   -0.000010
      3          1           0        1.293283   -0.861759   -0.887731
      4          1           0        1.293289   -0.861734    0.887756
      5          6           0       -0.082076    0.550755   -0.000006
      6          1           0       -0.141691    1.196292   -0.890064
      7          1           0       -0.141697    1.196303    0.890042
      8          8           0       -1.154848   -0.397071   -0.000005
      9          1           0       -1.999648    0.077583    0.000063
 ---------------------------------------------------------------------
 Rotational constants (GHZ):          34.9732051           9.2989615           8.0954204
 Leave Link  202 at Fri Feb  2 15:56:28 2024, MaxMem=   104857600 cpu:               0.0 elap:               0.0
 (Enter /home/phfmatias/G16/g16/l301.exe)
 Standard basis: 6-31+G(d) (6D, 7F)
 Ernie: Thresh=  0.10000D-02 Tol=  0.10000D-05 Strict=F.
 There are    69 symmetry adapted cartesian basis functions of A   symmetry.
 There are    69 symmetry adapted basis functions of A   symmetry.
    69 basis functions,   120 primitive gaussians,    69 cartesian basis functions
    13 alpha electrons       13 beta electrons
       nuclear repulsion energy        81.4684935750 Hartrees.
 IExCor=20419 DFT=T Ex+Corr=CAM-B3LYP ExCW=0 ScaHFX=  1.000000
 ScaDFX=  1.000000  1.000000  1.000000  0.810000 ScalE2=  1.000000  1.000000
 IRadAn=      5 IRanWt=     -1 IRanGd=            0 ICorTp=0 IEmpDi=  4
 HFx  wShort=  0.000000 wLong=  0.330000 cFull=  0.190000 cShort=  0.000000 cLong=  0.460000
 DFx  wShort=  0.000000 wLong=  0.330000 cFull=  0.190000 cShort=  0.000000 cLong=  0.460000
 NAtoms=    9 NActive=    9 NUniq=    9 SFac= 1.00D+00 NAtFMM=   60 NAOKFM=F Big=F
 Integral buffers will be    131072 words long.
 Raffenetti 2 integral format.
 Two-electron integral symmetry is turned on.
 Leave Link  301 at Fri Feb  2 15:56:28 2024, MaxMem=   104857600 cpu:               0.0 elap:               0.0
 (Enter /home/phfmatias/G16/g16/l302.exe)
 NPDir=0 NMtPBC=     1 NCelOv=     1 NCel=       1 NClECP=     1 NCelD=      1
         NCelK=      1 NCelE2=     1 NClLst=     1 CellRange=     0.0.
 One-electron integrals computed using PRISM.
 One-electron integral symmetry used in STVInt
 NBasis=    69 RedAO= T EigKep=  2.61D-04  NBF=    69
 NBsUse=    69 1.00D-06 EigRej= -1.00D+00 NBFU=    69
 Precomputing XC quadrature grid using
 IXCGrd= 4 IRadAn=           5 IRanWt=          -1 IRanGd=           0 AccXCQ= 0.00D+00.
 Generated NRdTot=       0 NPtTot=           0 NUsed=           0 NTot=          32
 NSgBfM=    69    69    69    69    69 MxSgAt=     9 MxSgA2=     9.
 Leave Link  302 at Fri Feb  2 15:56:28 2024, MaxMem=   104857600 cpu:               0.2 elap:               0.2
 (Enter /home/phfmatias/G16/g16/l303.exe)
 DipDrv:  MaxL=1.
 Leave Link  303 at Fri Feb  2 15:56:28 2024, MaxMem=   104857600 cpu:               0.0 elap:               0.0
 (Enter /home/phfmatias/G16/g16/l401.exe)
 ExpMin= 4.38D-02 ExpMax= 5.48D+03 ExpMxC= 8.25D+02 IAcc=3 IRadAn=         5 AccDes= 0.00D+00
 Harris functional with IExCor=20419 and IRadAn=       5 diagonalized for initial guess.
 HarFok:  IExCor=20419 AccDes= 0.00D+00 IRadAn=         5 IDoV= 1 UseB2=F ITyADJ=14
 ICtDFT=  3500011 ScaDFX=  1.000000  1.000000  1.000000  1.000000
 FoFCou: FMM=F IPFlag=           0 FMFlag=      100000 FMFlg1=           0
         NFxFlg=           0 DoJE=T BraDBF=F KetDBF=T FulRan=T
         wScrn=  0.000000 ICntrl=       500 IOpCl=  0 I1Cent=   200000004 NGrid=           0
         NMat0=    1 NMatS0=      1 NMatT0=    0 NMatD0=    1 NMtDS0=    0 NMtDT0=    0
 Petite list used in FoFCou.
 Harris En= -148.960128612978    
 JPrj=0 DoOrth=F DoCkMO=F.
 Leave Link  401 at Fri Feb  2 15:56:29 2024, MaxMem=   104857600 cpu:               1.1 elap:               1.1
 (Enter /home/phfmatias/G16/g16/l502.exe)
 Keep R1 ints in memory in canonical form, NReq=6728882.
 FoFCou: FMM=F IPFlag=           0 FMFlag=           0 FMFlg1=           0
         NFxFlg=           0 DoJE=F BraDBF=F KetDBF=F FulRan=T
         wScrn=  0.000000 ICntrl=       600 IOpCl=  0 I1Cent=           0 NGrid=           0
         NMat0=    1 NMatS0=   2415 NMatT0=    0 NMatD0=    1 NMtDS0=    0 NMtDT0=    0
 Symmetry not used in FoFCou.
 Two-electron integral symmetry not used.
 Closed shell SCF:
 Using DIIS extrapolation, IDIIS=  1040.
 NGot=   104857600 LenX=    99012069 LenY=    99006867
 Requested convergence on RMS density matrix=1.00D-08 within 128 cycles.
 Requested convergence on MAX density matrix=1.00D-06.
 Requested convergence on             energy=1.00D-06.
 No special actions if energy rises.

 Cycle   1  Pass 1  IDiag  1:
 E= -154.924284938038    
 DIIS: error= 6.33D-02 at cycle   1 NSaved=   1.
 NSaved= 1 IEnMin= 1 EnMin= -154.924284938038     IErMin= 1 ErrMin= 6.33D-02
 ErrMax= 6.33D-02  0.00D+00 EMaxC= 1.00D-01 BMatC= 1.11D-01 BMatP= 1.11D-01
 IDIUse=3 WtCom= 3.67D-01 WtEn= 6.33D-01
 Coeff-Com:  0.100D+01
 Coeff-En:   0.100D+01
 Coeff:      0.100D+01
 Gap=     0.422 Goal=   None    Shift=    0.000
 GapD=    0.422 DampG=2.000 DampE=0.500 DampFc=1.0000 IDamp=-1.
 RMSDP=5.98D-03 MaxDP=8.85D-02              OVMax= 7.38D-02

 Cycle   2  Pass 1  IDiag  1:
 E= -154.938709035134     Delta-E=       -0.014424097096 Rises=F Damp=F
 DIIS: error= 1.54D-02 at cycle   2 NSaved=   2.
 NSaved= 2 IEnMin= 2 EnMin= -154.938709035134     IErMin= 2 ErrMin= 1.54D-02
 ErrMax= 1.54D-02  0.00D+00 EMaxC= 1.00D-01 BMatC= 3.50D-02 BMatP= 1.11D-01
 IDIUse=3 WtCom= 8.46D-01 WtEn= 1.54D-01
 Coeff-Com:  0.318D+00 0.682D+00
 Coeff-En:   0.364D+00 0.636D+00
 Coeff:      0.325D+00 0.675D+00
 Gap=     0.404 Goal=   None    Shift=    0.000
 RMSDP=2.72D-03 MaxDP=4.72D-02 DE=-1.44D-02 OVMax= 5.13D-02

 Cycle   3  Pass 1  IDiag  1:
 E= -154.960342681777     Delta-E=       -0.021633646643 Rises=F Damp=F
 DIIS: error= 8.47D-03 at cycle   3 NSaved=   3.
 NSaved= 3 IEnMin= 3 EnMin= -154.960342681777     IErMin= 3 ErrMin= 8.47D-03
 ErrMax= 8.47D-03  0.00D+00 EMaxC= 1.00D-01 BMatC= 8.30D-03 BMatP= 3.50D-02
 IDIUse=3 WtCom= 9.15D-01 WtEn= 8.47D-02
 Coeff-Com:  0.175D-01 0.328D+00 0.654D+00
 Coeff-En:   0.000D+00 0.154D+00 0.846D+00
 Coeff:      0.160D-01 0.313D+00 0.671D+00
 Gap=     0.382 Goal=   None    Shift=    0.000
 RMSDP=1.18D-03 MaxDP=2.11D-02 DE=-2.16D-02 OVMax= 2.04D-02

 Cycle   4  Pass 1  IDiag  1:
 E= -154.966167390472     Delta-E=       -0.005824708695 Rises=F Damp=F
 DIIS: error= 1.98D-03 at cycle   4 NSaved=   4.
 NSaved= 4 IEnMin= 4 EnMin= -154.966167390472     IErMin= 4 ErrMin= 1.98D-03
 ErrMax= 1.98D-03  0.00D+00 EMaxC= 1.00D-01 BMatC= 3.87D-04 BMatP= 8.30D-03
 IDIUse=3 WtCom= 9.80D-01 WtEn= 1.98D-02
 Coeff-Com:  0.373D-02 0.140D+00 0.338D+00 0.518D+00
 Coeff-En:   0.000D+00 0.000D+00 0.000D+00 0.100D+01
 Coeff:      0.366D-02 0.137D+00 0.331D+00 0.528D+00
 Gap=     0.375 Goal=   None    Shift=    0.000
 RMSDP=2.24D-04 MaxDP=3.55D-03 DE=-5.82D-03 OVMax= 3.65D-03

 Cycle   5  Pass 1  IDiag  1:
 E= -154.966461235388     Delta-E=       -0.000293844916 Rises=F Damp=F
 DIIS: error= 1.26D-04 at cycle   5 NSaved=   5.
 NSaved= 5 IEnMin= 5 EnMin= -154.966461235388     IErMin= 5 ErrMin= 1.26D-04
 ErrMax= 1.26D-04  0.00D+00 EMaxC= 1.00D-01 BMatC= 2.02D-06 BMatP= 3.87D-04
 IDIUse=3 WtCom= 9.99D-01 WtEn= 1.26D-03
 Coeff-Com: -0.731D-03-0.184D-02 0.614D-02 0.619D-01 0.935D+00
 Coeff-En:   0.000D+00 0.000D+00 0.000D+00 0.000D+00 0.100D+01
 Coeff:     -0.730D-03-0.184D-02 0.613D-02 0.618D-01 0.935D+00
 Gap=     0.375 Goal=   None    Shift=    0.000
 RMSDP=3.92D-05 MaxDP=5.92D-04 DE=-2.94D-04 OVMax= 5.54D-04

 Cycle   6  Pass 1  IDiag  1:
 E= -154.966463765570     Delta-E=       -0.000002530182 Rises=F Damp=F
 DIIS: error= 2.87D-05 at cycle   6 NSaved=   6.
 NSaved= 6 IEnMin= 6 EnMin= -154.966463765570     IErMin= 6 ErrMin= 2.87D-05
 ErrMax= 2.87D-05  0.00D+00 EMaxC= 1.00D-01 BMatC= 6.82D-08 BMatP= 2.02D-06
 IDIUse=1 WtCom= 1.00D+00 WtEn= 0.00D+00
 Coeff-Com: -0.185D-03-0.661D-02-0.141D-01-0.175D-01 0.951D-01 0.943D+00
 Coeff:     -0.185D-03-0.661D-02-0.141D-01-0.175D-01 0.951D-01 0.943D+00
 Gap=     0.375 Goal=   None    Shift=    0.000
 RMSDP=9.92D-06 MaxDP=1.58D-04 DE=-2.53D-06 OVMax= 1.42D-04

 Cycle   7  Pass 1  IDiag  1:
 E= -154.966463876089     Delta-E=       -0.000000110518 Rises=F Damp=F
 DIIS: error= 4.86D-06 at cycle   7 NSaved=   7.
 NSaved= 7 IEnMin= 7 EnMin= -154.966463876089     IErMin= 7 ErrMin= 4.86D-06
 ErrMax= 4.86D-06  0.00D+00 EMaxC= 1.00D-01 BMatC= 2.02D-09 BMatP= 6.82D-08
 IDIUse=1 WtCom= 1.00D+00 WtEn= 0.00D+00
 Coeff-Com: -0.291D-05-0.438D-03-0.102D-02-0.195D-02-0.174D-01 0.570D-01
 Coeff-Com:  0.964D+00
 Coeff:     -0.291D-05-0.438D-03-0.102D-02-0.195D-02-0.174D-01 0.570D-01
 Coeff:      0.964D+00
 Gap=     0.375 Goal=   None    Shift=    0.000
 RMSDP=1.72D-06 MaxDP=2.04D-05 DE=-1.11D-07 OVMax= 3.22D-05

 Cycle   8  Pass 1  IDiag  1:
 E= -154.966463879653     Delta-E=       -0.000000003564 Rises=F Damp=F
 DIIS: error= 2.14D-06 at cycle   8 NSaved=   8.
 NSaved= 8 IEnMin= 8 EnMin= -154.966463879653     IErMin= 8 ErrMin= 2.14D-06
 ErrMax= 2.14D-06  0.00D+00 EMaxC= 1.00D-01 BMatC= 5.69D-10 BMatP= 2.02D-09
 IDIUse=1 WtCom= 1.00D+00 WtEn= 0.00D+00
 Coeff-Com:  0.166D-04 0.260D-03 0.504D-03 0.381D-03-0.135D-01-0.402D-01
 Coeff-Com:  0.388D+00 0.664D+00
 Coeff:      0.166D-04 0.260D-03 0.504D-03 0.381D-03-0.135D-01-0.402D-01
 Coeff:      0.388D+00 0.664D+00
 Gap=     0.375 Goal=   None    Shift=    0.000
 RMSDP=4.75D-07 MaxDP=7.53D-06 DE=-3.56D-09 OVMax= 8.21D-06

 Cycle   9  Pass 1  IDiag  1:
 E= -154.966463880279     Delta-E=       -0.000000000627 Rises=F Damp=F
 DIIS: error= 3.62D-07 at cycle   9 NSaved=   9.
 NSaved= 9 IEnMin= 9 EnMin= -154.966463880279     IErMin= 9 ErrMin= 3.62D-07
 ErrMax= 3.62D-07  0.00D+00 EMaxC= 1.00D-01 BMatC= 1.44D-11 BMatP= 5.69D-10
 IDIUse=1 WtCom= 1.00D+00 WtEn= 0.00D+00
 Coeff-Com:  0.299D-05 0.973D-04 0.198D-03 0.242D-03-0.126D-02-0.135D-01
 Coeff-Com: -0.449D-02 0.106D+00 0.912D+00
 Coeff:      0.299D-05 0.973D-04 0.198D-03 0.242D-03-0.126D-02-0.135D-01
 Coeff:     -0.449D-02 0.106D+00 0.912D+00
 Gap=     0.375 Goal=   None    Shift=    0.000
 RMSDP=1.60D-07 MaxDP=1.96D-06 DE=-6.27D-10 OVMax= 2.79D-06

 Cycle  10  Pass 1  IDiag  1:
 E= -154.966463880306     Delta-E=       -0.000000000027 Rises=F Damp=F
 DIIS: error= 7.04D-08 at cycle  10 NSaved=  10.
 NSaved=10 IEnMin=10 EnMin= -154.966463880306     IErMin=10 ErrMin= 7.04D-08
 ErrMax= 7.04D-08  0.00D+00 EMaxC= 1.00D-01 BMatC= 4.67D-13 BMatP= 1.44D-11
 IDIUse=1 WtCom= 1.00D+00 WtEn= 0.00D+00
 Coeff-Com: -0.744D-06-0.680D-05-0.139D-04-0.108D-04 0.636D-03 0.140D-02
 Coeff-Com: -0.191D-01-0.314D-01 0.512D-01 0.997D+00
 Coeff:     -0.744D-06-0.680D-05-0.139D-04-0.108D-04 0.636D-03 0.140D-02
 Coeff:     -0.191D-01-0.314D-01 0.512D-01 0.997D+00
 Gap=     0.375 Goal=   None    Shift=    0.000
 RMSDP=3.94D-08 MaxDP=4.78D-07 DE=-2.67D-11 OVMax= 6.76D-07

 Cycle  11  Pass 1  IDiag  1:
 E= -154.966463880307     Delta-E=       -0.000000000001 Rises=F Damp=F
 DIIS: error= 1.20D-08 at cycle  11 NSaved=  11.
 NSaved=11 IEnMin=11 EnMin= -154.966463880307     IErMin=11 ErrMin= 1.20D-08
 ErrMax= 1.20D-08  0.00D+00 EMaxC= 1.00D-01 BMatC= 1.05D-14 BMatP= 4.67D-13
 IDIUse=1 WtCom= 1.00D+00 WtEn= 0.00D+00
 Coeff-Com: -0.469D-07-0.189D-05-0.415D-05-0.431D-05 0.105D-04 0.284D-03
 Coeff-Com:  0.283D-03-0.150D-02-0.248D-01-0.777D-02 0.103D+01
 Coeff:     -0.469D-07-0.189D-05-0.415D-05-0.431D-05 0.105D-04 0.284D-03
 Coeff:      0.283D-03-0.150D-02-0.248D-01-0.777D-02 0.103D+01
 Gap=     0.375 Goal=   None    Shift=    0.000
 RMSDP=3.79D-09 MaxDP=5.33D-08 DE=-1.08D-12 OVMax= 1.03D-07

 SCF Done:  E(RCAM-B3LYP) =  -154.966463880     A.U. after   11 cycles
            NFock= 11  Conv=0.38D-08     -V/T= 2.0097
 KE= 1.534845222897D+02 PE=-5.244336726208D+02 EE= 1.345141928758D+02
 Leave Link  502 at Fri Feb  2 15:56:42 2024, MaxMem=   104857600 cpu:              12.7 elap:              12.7
 (Enter /home/phfmatias/G16/g16/l601.exe)
 Copying SCF densities to generalized density rwf, IOpCl= 0 IROHF=0.

 **********************************************************************

            Population analysis using the SCF Density.

 **********************************************************************

 Orbital symmetries:
       Occupied  (A) (A) (A) (A) (A) (A) (A) (A) (A) (A) (A) (A)
                 (A)
       Virtual   (A) (A) (A) (A) (A) (A) (A) (A) (A) (A) (A) (A)
                 (A) (A) (A) (A) (A) (A) (A) (A) (A) (A) (A) (A)
                 (A) (A) (A) (A) (A) (A) (A) (A) (A) (A) (A) (A)
                 (A) (A) (A) (A) (A) (A) (A) (A) (A) (A) (A) (A)
                 (A) (A) (A) (A) (A) (A) (A) (A)
 The electronic state is 1-A.
 Alpha  occ. eigenvalues --  -19.22893 -10.31085 -10.25108  -1.10188  -0.83247
 Alpha  occ. eigenvalues --   -0.69038  -0.59115  -0.53883  -0.47148  -0.45032
 Alpha  occ. eigenvalues --   -0.43305  -0.40080  -0.34249
 Alpha virt. eigenvalues --    0.03230   0.05631   0.06668   0.07675   0.10359
 Alpha virt. eigenvalues --    0.10676   0.11105   0.16348   0.19605   0.22627
 Alpha virt. eigenvalues --    0.23246   0.23333   0.26068   0.28413   0.30207
 Alpha virt. eigenvalues --    0.31014   0.34376   0.35973   0.36623   0.40929
 Alpha virt. eigenvalues --    0.68194   0.70235   0.70947   0.76758   0.78322
 Alpha virt. eigenvalues --    0.80876   0.97840   1.01218   1.04314   1.08016
 Alpha virt. eigenvalues --    1.12663   1.15850   1.18276   1.26919   1.27443
 Alpha virt. eigenvalues --    1.34854   1.52316   1.53811   1.59533   1.74587
 Alpha virt. eigenvalues --    1.80733   1.87919   2.00145   2.03809   2.11277
 Alpha virt. eigenvalues --    2.25320   2.31851   2.41155   2.46734   2.47969
 Alpha virt. eigenvalues --    2.59898   2.71178   2.95558   4.11152   4.28456
 Alpha virt. eigenvalues --    4.50686
          Condensed to atoms (all electrons):
               1          2          3          4          5          6
     1  C    5.673559   0.392107   0.394300   0.394301  -0.010941  -0.073992
     2  H    0.392107   0.512453  -0.026894  -0.026893  -0.053147  -0.001126
     3  H    0.394300  -0.026894   0.488823  -0.027391  -0.042131  -0.006015
     4  H    0.394301  -0.026893  -0.027391   0.488823  -0.042132   0.004429
     5  C   -0.010941  -0.053147  -0.042131  -0.042132   5.287445   0.433937
     6  H   -0.073992  -0.001126  -0.006015   0.004429   0.433937   0.584552
     7  H   -0.073980  -0.001127   0.004429  -0.006015   0.433925  -0.053693
     8  O   -0.078374   0.007945  -0.000451  -0.000451   0.146668  -0.057504
     9  H    0.034383  -0.000246  -0.000064  -0.000064  -0.043928  -0.004164
               7          8          9
     1  C   -0.073980  -0.078374   0.034383
     2  H   -0.001127   0.007945  -0.000246
     3  H    0.004429  -0.000451  -0.000064
     4  H   -0.006015  -0.000451  -0.000064
     5  C    0.433925   0.146668  -0.043928
     6  H   -0.053693  -0.057504  -0.004164
     7  H    0.584553  -0.057502  -0.004165
     8  O   -0.057502   8.525595   0.194157
     9  H   -0.004165   0.194157   0.357813
 Mulliken charges:
               1
     1  C   -0.651362
     2  H    0.196928
     3  H    0.215393
     4  H    0.215393
     5  C   -0.109697
     6  H    0.173576
     7  H    0.173574
     8  O   -0.680083
     9  H    0.466278
 Sum of Mulliken charges =  -0.00000
 Mulliken charges with hydrogens summed into heavy atoms:
               1
     1  C   -0.023648
     5  C    0.237453
     8  O   -0.213805
 Electronic spatial extent (au):  <R**2>=            195.7506
 Charge=             -0.0000 electrons
 Dipole moment (field-independent basis, Debye):
    X=             -0.1158    Y=              1.8525    Z=              0.0001  Tot=              1.8561
 Quadrupole moment (field-independent basis, Debye-Ang):
   XX=            -17.1893   YY=            -21.2171   ZZ=            -20.6216
   XY=             -2.2812   XZ=             -0.0003   YZ=              0.0000
 Traceless Quadrupole moment (field-independent basis, Debye-Ang):
   XX=              2.4867   YY=             -1.5411   ZZ=             -0.9456
   XY=             -2.2812   XZ=             -0.0003   YZ=              0.0000
 Octapole moment (field-independent basis, Debye-Ang**2):
  XXX=            -15.9839  YYY=              0.0608  ZZZ=              0.0001  XYY=             -0.3359
  XXY=              3.1222  XXZ=              0.0006  XZZ=             -0.9567  YZZ=             -0.0042
  YYZ=             -0.0000  XYZ=             -0.0000
 Hexadecapole moment (field-independent basis, Debye-Ang**3):
 XXXX=           -137.2468 YYYY=            -62.2990 ZZZZ=            -36.0611 XXXY=             -0.8315
 XXXZ=             -0.0014 YYYX=             -0.0376 YYYZ=              0.0002 ZZZX=             -0.0001
 ZZZY=              0.0001 XXYY=            -38.1535 XXZZ=            -34.8009 YYZZ=            -15.2464
 XXYZ=              0.0000 YYXZ=             -0.0000 ZZXY=             -1.3528
 N-N= 8.146849357497D+01 E-N=-5.244336730401D+02  KE= 1.534845222897D+02
 No NMR shielding tensors so no spin-rotation constants.
 Leave Link  601 at Fri Feb  2 15:56:42 2024, MaxMem=   104857600 cpu:               0.1 elap:               0.1
 (Enter /home/phfmatias/G16/g16/l9999.exe)
 1\1\GINC-PHFMATIAS\SP\RCAM-B3LYP\6-31+G(d)\C2H6O1\PHFMATIAS\02-Feb-202
 4\0\\#p cam-b3lyp/6-31+g(d) Geom=AllCheck\\Test Job for MK\\0,1\C,0,1.
 2249441797,-0.2230850655,0.0000055243\H,0,2.0773733981,0.466727561,-0.
 0000081265\H,0,1.2936070199,-0.8613790123,-0.8877292071\H,0,1.29361273
 87,-0.8613541357,0.887757739\C,0,-0.0825548526,0.5503522019,-0.0000038
 978\H,0,-0.1425367574,1.1958546595,-0.8900617457\H,0,-0.14254294,1.195
 8660655,0.8900445114\O,0,-1.1547875031,-0.3980833187,-0.0000026557\H,0
 ,-1.9998572833,0.0760900442,0.0000648581\\Version=EM64L-G16RevB.01\Sta
 te=1-A\HF=-154.9664639\RMSD=3.792e-09\Dipole=-0.045968,0.7288054,0.000
 0486\Quadrupole=1.8507364,-1.1476987,-0.7030378,-1.6943174,-0.0002284,
 0.0000222\PG=C01 [X(C2H6O1)]\\@


 KNOWING HOW CONTENTED, FREE, AND JOYFUL IS LIFE IN
 THE REALMS OF SCIENCE, ONE FERVENTLY WISHES THAT
 MANY WOULD ENTER HER PORTALS.
   --  DMITRI IVANOVICH MENDELEEV
 "FIRST PRINCIPLES OF CHEMISTRY", LONGMANS, GREEN,
 AND CO.  LONDON, 1891
 Job cpu time:       0 days  0 hours  0 minutes 14.4 seconds.
 Elapsed time:       0 days  0 hours  0 minutes 14.3 seconds.
 File lengths (MBytes):  RWF=      6 Int=      0 D2E=      0 Chk=      2 Scr=      1
 Normal termination of Gaussian 16 at Fri Feb  2 15:56:42 2024.
