 Entering Gaussian System, Link 0=g16
 Input=CYTOP_POLAR_LC_BLYP_w0022_neutral.gjf
 Output=CYTOP_POLAR_LC_BLYP_w0022_neutral.log
 Initial command:
 /opt/ohpc/pub/apps/gaussian/16b01-sse4/g16/l1.exe "/scratch/local/Gau-8679.inp" -scrdir="/scratch/local/"
 Entering Link 1 = /opt/ohpc/pub/apps/gaussian/16b01-sse4/g16/l1.exe PID=      8680.
  
 Copyright (c) 1988-2017, Gaussian, Inc.  All Rights Reserved.
  
 This is part of the Gaussian(R) 16 program.  It is based on
 the Gaussian(R) 09 system (copyright 2009, Gaussian, Inc.),
 the Gaussian(R) 03 system (copyright 2003, Gaussian, Inc.),
 the Gaussian(R) 98 system (copyright 1998, Gaussian, Inc.),
 the Gaussian(R) 94 system (copyright 1995, Gaussian, Inc.),
 the Gaussian 92(TM) system (copyright 1992, Gaussian, Inc.),
 the Gaussian 90(TM) system (copyright 1990, Gaussian, Inc.),
 the Gaussian 88(TM) system (copyright 1988, Gaussian, Inc.),
 the Gaussian 86(TM) system (copyright 1986, Carnegie Mellon
 University), and the Gaussian 82(TM) system (copyright 1983,
 Carnegie Mellon University). Gaussian is a federally registered
 trademark of Gaussian, Inc.
  
 This software contains proprietary and confidential information,
 including trade secrets, belonging to Gaussian, Inc.
  
 This software is provided under written license and may be
 used, copied, transmitted, or stored only in accord with that
 written license.
  
 The following legend is applicable only to US Government
 contracts under FAR:
  
                    RESTRICTED RIGHTS LEGEND
  
 Use, reproduction and disclosure by the US Government is
 subject to restrictions as set forth in subparagraphs (a)
 and (c) of the Commercial Computer Software - Restricted
 Rights clause in FAR 52.227-19.
  
 Gaussian, Inc.
 340 Quinnipiac St., Bldg. 40, Wallingford CT 06492
  
  
 ---------------------------------------------------------------
 Warning -- This program may not be used in any manner that
 competes with the business of Gaussian, Inc. or will provide
 assistance to any competitor of Gaussian, Inc.  The licensee
 of this program is prohibited from giving any competitor of
 Gaussian, Inc. access to this program.  By using this program,
 the user acknowledges that Gaussian, Inc. is engaged in the
 business of creating and licensing software in the field of
 computational chemistry and represents and warrants to the
 licensee that it is not a competitor of Gaussian, Inc. and that
 it will not use this program in any manner prohibited above.
 ---------------------------------------------------------------
  

 Cite this work as:
 Gaussian 16, Revision B.01,
 M. J. Frisch, G. W. Trucks, H. B. Schlegel, G. E. Scuseria, 
 M. A. Robb, J. R. Cheeseman, G. Scalmani, V. Barone, 
 G. A. Petersson, H. Nakatsuji, X. Li, M. Caricato, A. V. Marenich, 
 J. Bloino, B. G. Janesko, R. Gomperts, B. Mennucci, H. P. Hratchian, 
 J. V. Ortiz, A. F. Izmaylov, J. L. Sonnenberg, D. Williams-Young, 
 F. Ding, F. Lipparini, F. Egidi, J. Goings, B. Peng, A. Petrone, 
 T. Henderson, D. Ranasinghe, V. G. Zakrzewski, J. Gao, N. Rega, 
 G. Zheng, W. Liang, M. Hada, M. Ehara, K. Toyota, R. Fukuda, 
 J. Hasegawa, M. Ishida, T. Nakajima, Y. Honda, O. Kitao, H. Nakai, 
 T. Vreven, K. Throssell, J. A. Montgomery, Jr., J. E. Peralta, 
 F. Ogliaro, M. J. Bearpark, J. J. Heyd, E. N. Brothers, K. N. Kudin, 
 V. N. Staroverov, T. A. Keith, R. Kobayashi, J. Normand, 
 K. Raghavachari, A. P. Rendell, J. C. Burant, S. S. Iyengar, 
 J. Tomasi, M. Cossi, J. M. Millam, M. Klene, C. Adamo, R. Cammi, 
 J. W. Ochterski, R. L. Martin, K. Morokuma, O. Farkas, 
 J. B. Foresman, and D. J. Fox, Gaussian, Inc., Wallingford CT, 2016.
 
 ******************************************
 Gaussian 16:  ES64L-G16RevB.01 20-Dec-2017
                10-Oct-2023 
 ******************************************
 %chk=CYTOP_POLAR_LC_BLYP_w0022_neutral.chk
 %nprocshared=32
 Will use up to   32 processors via shared memory.
 %mem=93GB
 ----------------------------------------------------------------------
 #p lc-blyp/6-31++G(d,p) density=current NoSymm IOP(3/107=0220000000) I
 OP(3/108=0220000000) polar=gamma volume
 ----------------------------------------------------------------------
 1/30=1,38=101,83=3,84=49,172=1/1,6;
 2/12=2,15=1,17=6,18=5,40=1/2;
 3/5=1,6=6,7=1111,11=2,25=1,30=1,74=1000402,107=220000000,108=220000000/1,2,3;
 4/69=2/1;
 5/5=2,38=5,98=1/2;
 8/6=4,10=90,11=11/1;
 10/6=20001,13=10,31=1,60=-2,72=3/2;
 6/7=2,8=2,9=2,10=2,12=2,22=-1,28=1,44=1/1,4;
 1/38=100,84=49/6(1);
 99/9=1/99;
 3/5=1,6=6,7=1111,11=2,14=-3,25=1,30=1,74=1000402,107=220000000,108=220000000/1,2,3;
 4/5=5,16=3,69=2/1;
 5/5=2,38=5,98=1/2;
 8/6=4,10=90,11=11/1;
 10/6=20001,13=10,31=1,60=-2,72=3/2;
 6/7=2,8=2,9=2,10=2,12=2,22=-1,28=1,44=1/1,4;
 1/38=100,84=49/6(-6);
 99/9=1/99;
 Leave Link    1 at Tue Oct 10 14:49:53 2023, MaxMem= 12482248704 cpu:               0.9 elap:               0.0
 (Enter /opt/ohpc/pub/apps/gaussian/16b01-sse4/g16/l101.exe)
 --------------------------------
 Omega Optimization by jgap value
 --------------------------------
 Symbolic Z-matrix:
 Charge =  0 Multiplicity = 1
 C                     13.77419  -5.7683    0.63023 
 O                     12.75512  -4.99981   0.06543 
 C                     11.58693  -5.0466    0.82171 
 C                     11.58877  -6.45297   1.5108 
 C                     13.11344  -6.58668   1.7802 
 F                     13.41185  -6.03284   2.97019 
 F                     14.75268  -4.97432   1.0876 
 F                     13.54122  -7.86965   1.77715 
 F                     14.28837  -6.56642  -0.31301 
 F                     10.89137  -6.42049   2.68414 
 F                     11.62741  -4.13727   1.85602 
 C                     11.066   -7.66465   0.71681 
 H                     11.23004  -8.57698   1.29681 
 C                     10.39028  -4.65347  -0.06854 
 F                     9.73965  -7.5332    0.48335 
 F                     11.72802  -7.75812  -0.46629 
 F                     9.27017  -4.84402   0.66572 
 F                     10.37056  -5.48201  -1.13925 
 C                     11.95302  -0.24546  -0.45183 
 O                     10.70476   0.01317  -1.01259 
 C                     9.69     -0.60835  -0.29861 
 C                     10.30794  -1.96892   0.24796 
 C                     11.75191  -1.4203    0.55713 
 F                     11.7654  -0.9524    1.81821 
 F                     12.42643   0.8495    0.1597 
 F                     12.75092  -2.30815   0.41001 
 F                     12.79759  -0.57854  -1.43366 
 F                     9.66349  -2.31398   1.39691 
 F                     9.39579   0.08521   0.85693 
 C                     10.29195  -3.206    -0.69971 
 C                     8.41027  -0.55912  -1.16448 
 F                     9.09244  -3.26679  -1.3318 
 F                     11.25707  -3.05559  -1.63722 
 F                     7.47731  -1.33097  -0.56444 
 F                     8.69789  -1.0483   -2.39288 
 C                     8.06033   4.10863  -0.5802 
 O                     6.79151   3.94135  -1.12895 
 C                     6.15049   2.83669  -0.58744 
 C                     7.28934   1.76105  -0.30669 
 C                     8.40863   2.77314   0.15265 
 F                     8.30971   2.93638   1.48389 
 F                     8.0704    5.14759   0.26706 
 F                     9.67101   2.42195  -0.15228 
 F                     8.91891   4.36503  -1.57249 
 F                     6.8919    0.96609   0.72529 
 F                     5.6671    3.11033   0.67552 
 C                     7.7214    0.83607  -1.48261 
 C                     4.9126    2.5372   -1.4638 
 F                     6.61717   0.4355   -2.16271 
 F                     8.50512   1.54163  -2.33108 
 F                     4.40176   1.35185  -1.06357 
 F                     5.30322   2.46187  -2.75712 
 C                     2.75854   6.45088   0.04831 
 O                     1.63292   5.8989   -0.55768 
 C                     1.51902   4.54622  -0.27179 
 C                     3.00692   3.98842  -0.18321 
 C                     3.65133   5.25277   0.50557 
 F                     3.56757   5.09568   1.83862 
 F                     2.40129   7.2184    1.08779 
 F                     4.93028   5.50763   0.17488 
 F                     3.38634   7.21954  -0.84766 
 F                     3.01915   2.91313   0.65255 
 F                     1.03804   4.34525   1.00561 
 C                     3.70641   3.56949  -1.51003 
 C                     0.45735   3.95341  -1.22633 
 F                     2.81854   2.9021   -2.29016 
 F                     4.09396   4.68413  -2.17292 
 F                     0.48785   2.60906  -1.09203 
 F                     0.7714    4.30076  -2.4958 
 C                    -2.99286   6.27791   0.99557 
 O                    -3.83524   5.4543    0.25345 
 C                    -3.38363   4.14256   0.25186 
 C                    -1.79434   4.22498   0.26827 
 C                    -1.67089   5.47587   1.22136 
 F                    -1.60781   5.03506   2.49035 
 F                    -3.56854   6.6084    2.16037 
 F                    -0.6218    6.28496   0.98698 
 F                    -2.77674   7.3984    0.29882 
 F                    -1.3064    3.10211   0.86488 
 F                    -3.6722    3.51437   1.44579 
 C                    -1.06193   4.39762  -1.09507 
 C                    -4.17188   3.37719  -0.83571 
 F                    -1.65034   3.59853  -2.02105 
 F                    -1.1919    5.68149  -1.50352 
 F                    -3.6003    2.16111  -0.97941 
 F                    -4.09305   4.06768  -1.99677 
 C                    -8.13332   3.62644   1.7105 
 O                    -8.61806   2.7007    0.79059 
 C                    -7.68233   1.70932   0.53266 
 C                    -6.25901   2.41706   0.61343 
 C                    -6.59114   3.39389   1.80646 
 F                    -6.2877    2.77099   2.95911 
 F                    -8.7273    3.45913   2.90071 
 F                    -5.9653    4.58455   1.7751 
 F                    -8.41981   4.85422   1.265 
 F                    -5.33168   1.48971   0.98102 
 F                    -7.62993   0.793     1.5625 
 C                    -5.73249   3.1382   -0.66242 
 C                    -8.15922   0.92733  -0.71269 
 F                    -6.00354   2.3735   -1.75048 
 F                    -6.38544   4.31558  -0.80217 
 F                    -7.15886   0.09888  -1.08592 
 F                    -8.42574   1.80957  -1.70361 
 C                    -11.74517  -0.95021   1.70823 
 O                    -11.87187  -1.78647   0.60301 
 C                    -10.63414  -2.245     0.17377 
 C                    -9.60856  -1.05833   0.44235 
 C                    -10.2355  -0.55743   1.80004 
 F                    -9.64447  -1.22174   2.80901 
 F                    -12.15471  -1.57707   2.82037 
 F                    -10.13949   0.76464   2.03204 
 F                    -12.5221   0.12172   1.51833 
 F                    -8.36972  -1.58943   0.63942 
 F                    -10.16646  -3.24891   0.99509 
 C                    -9.4832    0.05288  -0.64105 
 C                    -10.8309  -2.88464  -1.2204 
 F                    -9.48498  -0.52165  -1.87068 
 F                    -10.5577   0.87172  -0.55708 
 F                    -9.6092   -3.15421  -1.73106 
 F                    -11.48028  -2.00174  -2.01476 
 C                    -13.24925  -6.48777   0.58812 
 O                    -13.07223  -7.03801  -0.67644 
 C                    -11.76466  -6.85524  -1.12641 
 C                    -11.29555  -5.46889  -0.53886 
 C                    -12.00793  -5.57759   0.85945 
 F                    -11.16732  -6.18586   1.71679 
 F                    -13.35569  -7.45511   1.51313 
 F                    -12.4153  -4.41543   1.40346 
 F                    -14.38688  -5.78155   0.59173 
 F                    -9.93854  -5.47999  -0.40576 
 F                    -10.9302  -7.77986  -0.53004 
 C                    -11.69689  -4.20484  -1.35389 
 C                    -11.73633  -7.23079  -2.61973 
 H                    -11.84612  -8.31785  -2.69087 
 F                    -11.57989  -4.47892  -2.67839 
 F                    -12.995   -3.91034  -1.10344 
 F                    -10.54386  -6.86755  -3.15084 
 F                    -12.74519  -6.64337  -3.30048 
 
 ITRead=  0  0  0  0  0  0  0  0  0  0  0  0  0  0  0  0  0  0  0  0
 ITRead=  0  0  0  0  0  0  0  0  0  0  0  0  0  0  0  0  0  0  0  0
 ITRead=  0  0  0  0  0  0  0  0  0  0  0  0  0  0  0  0  0  0  0  0
 ITRead=  0  0  0  0  0  0  0  0  0  0  0  0  0  0  0  0  0  0  0  0
 ITRead=  0  0  0  0  0  0  0  0  0  0  0  0  0  0  0  0  0  0  0  0
 ITRead=  0  0  0  0  0  0  0  0  0  0  0  0  0  0  0  0  0  0  0  0
 ITRead=  0  0  0  0  0  0  0  0  0  0  0  0  0  0  0  0  0  0
 MicOpt= -1 -1 -1 -1 -1 -1 -1 -1 -1 -1 -1 -1 -1 -1 -1 -1 -1 -1 -1 -1
 MicOpt= -1 -1 -1 -1 -1 -1 -1 -1 -1 -1 -1 -1 -1 -1 -1 -1 -1 -1 -1 -1
 MicOpt= -1 -1 -1 -1 -1 -1 -1 -1 -1 -1 -1 -1 -1 -1 -1 -1 -1 -1 -1 -1
 MicOpt= -1 -1 -1 -1 -1 -1 -1 -1 -1 -1 -1 -1 -1 -1 -1 -1 -1 -1 -1 -1
 MicOpt= -1 -1 -1 -1 -1 -1 -1 -1 -1 -1 -1 -1 -1 -1 -1 -1 -1 -1 -1 -1
 MicOpt= -1 -1 -1 -1 -1 -1 -1 -1 -1 -1 -1 -1 -1 -1 -1 -1 -1 -1 -1 -1
 MicOpt= -1 -1 -1 -1 -1 -1 -1 -1 -1 -1 -1 -1 -1 -1 -1 -1 -1 -1
 NAtoms=    138 NQM=      138 NQMF=       0 NMMI=      0 NMMIF=      0
                NMic=       0 NMicF=      0.
                    Isotopes and Nuclear Properties:
 (Nuclear quadrupole moments (NQMom) in fm**2, nuclear magnetic moments (NMagM)
  in nuclear magnetons)

  Atom         1           2           3           4           5           6           7           8           9          10
 IAtWgt=          12          16          12          12          12          19          19          19          19          19
 AtmWgt=  12.0000000  15.9949146  12.0000000  12.0000000  12.0000000  18.9984033  18.9984033  18.9984033  18.9984033  18.9984033
 NucSpn=           0           0           0           0           0           1           1           1           1           1
 AtZEff=  -0.0000000  -0.0000000  -0.0000000  -0.0000000  -0.0000000  -0.0000000  -0.0000000  -0.0000000  -0.0000000  -0.0000000
 NQMom=    0.0000000   0.0000000   0.0000000   0.0000000   0.0000000   0.0000000   0.0000000   0.0000000   0.0000000   0.0000000
 NMagM=    0.0000000   0.0000000   0.0000000   0.0000000   0.0000000   2.6288670   2.6288670   2.6288670   2.6288670   2.6288670
 AtZNuc=   6.0000000   8.0000000   6.0000000   6.0000000   6.0000000   9.0000000   9.0000000   9.0000000   9.0000000   9.0000000

  Atom        11          12          13          14          15          16          17          18          19          20
 IAtWgt=          19          12           1          12          19          19          19          19          12          16
 AtmWgt=  18.9984033  12.0000000   1.0078250  12.0000000  18.9984033  18.9984033  18.9984033  18.9984033  12.0000000  15.9949146
 NucSpn=           1           0           1           0           1           1           1           1           0           0
 AtZEff=  -0.0000000  -0.0000000  -0.0000000  -0.0000000  -0.0000000  -0.0000000  -0.0000000  -0.0000000  -0.0000000  -0.0000000
 NQMom=    0.0000000   0.0000000   0.0000000   0.0000000   0.0000000   0.0000000   0.0000000   0.0000000   0.0000000   0.0000000
 NMagM=    2.6288670   0.0000000   2.7928460   0.0000000   2.6288670   2.6288670   2.6288670   2.6288670   0.0000000   0.0000000
 AtZNuc=   9.0000000   6.0000000   1.0000000   6.0000000   9.0000000   9.0000000   9.0000000   9.0000000   6.0000000   8.0000000

  Atom        21          22          23          24          25          26          27          28          29          30
 IAtWgt=          12          12          12          19          19          19          19          19          19          12
 AtmWgt=  12.0000000  12.0000000  12.0000000  18.9984033  18.9984033  18.9984033  18.9984033  18.9984033  18.9984033  12.0000000
 NucSpn=           0           0           0           1           1           1           1           1           1           0
 AtZEff=  -0.0000000  -0.0000000  -0.0000000  -0.0000000  -0.0000000  -0.0000000  -0.0000000  -0.0000000  -0.0000000  -0.0000000
 NQMom=    0.0000000   0.0000000   0.0000000   0.0000000   0.0000000   0.0000000   0.0000000   0.0000000   0.0000000   0.0000000
 NMagM=    0.0000000   0.0000000   0.0000000   2.6288670   2.6288670   2.6288670   2.6288670   2.6288670   2.6288670   0.0000000
 AtZNuc=   6.0000000   6.0000000   6.0000000   9.0000000   9.0000000   9.0000000   9.0000000   9.0000000   9.0000000   6.0000000

  Atom        31          32          33          34          35          36          37          38          39          40
 IAtWgt=          12          19          19          19          19          12          16          12          12          12
 AtmWgt=  12.0000000  18.9984033  18.9984033  18.9984033  18.9984033  12.0000000  15.9949146  12.0000000  12.0000000  12.0000000
 NucSpn=           0           1           1           1           1           0           0           0           0           0
 AtZEff=  -0.0000000  -0.0000000  -0.0000000  -0.0000000  -0.0000000  -0.0000000  -0.0000000  -0.0000000  -0.0000000  -0.0000000
 NQMom=    0.0000000   0.0000000   0.0000000   0.0000000   0.0000000   0.0000000   0.0000000   0.0000000   0.0000000   0.0000000
 NMagM=    0.0000000   2.6288670   2.6288670   2.6288670   2.6288670   0.0000000   0.0000000   0.0000000   0.0000000   0.0000000
 AtZNuc=   6.0000000   9.0000000   9.0000000   9.0000000   9.0000000   6.0000000   8.0000000   6.0000000   6.0000000   6.0000000

  Atom        41          42          43          44          45          46          47          48          49          50
 IAtWgt=          19          19          19          19          19          19          12          12          19          19
 AtmWgt=  18.9984033  18.9984033  18.9984033  18.9984033  18.9984033  18.9984033  12.0000000  12.0000000  18.9984033  18.9984033
 NucSpn=           1           1           1           1           1           1           0           0           1           1
 AtZEff=  -0.0000000  -0.0000000  -0.0000000  -0.0000000  -0.0000000  -0.0000000  -0.0000000  -0.0000000  -0.0000000  -0.0000000
 NQMom=    0.0000000   0.0000000   0.0000000   0.0000000   0.0000000   0.0000000   0.0000000   0.0000000   0.0000000   0.0000000
 NMagM=    2.6288670   2.6288670   2.6288670   2.6288670   2.6288670   2.6288670   0.0000000   0.0000000   2.6288670   2.6288670
 AtZNuc=   9.0000000   9.0000000   9.0000000   9.0000000   9.0000000   9.0000000   6.0000000   6.0000000   9.0000000   9.0000000

  Atom        51          52          53          54          55          56          57          58          59          60
 IAtWgt=          19          19          12          16          12          12          12          19          19          19
 AtmWgt=  18.9984033  18.9984033  12.0000000  15.9949146  12.0000000  12.0000000  12.0000000  18.9984033  18.9984033  18.9984033
 NucSpn=           1           1           0           0           0           0           0           1           1           1
 AtZEff=  -0.0000000  -0.0000000  -0.0000000  -0.0000000  -0.0000000  -0.0000000  -0.0000000  -0.0000000  -0.0000000  -0.0000000
 NQMom=    0.0000000   0.0000000   0.0000000   0.0000000   0.0000000   0.0000000   0.0000000   0.0000000   0.0000000   0.0000000
 NMagM=    2.6288670   2.6288670   0.0000000   0.0000000   0.0000000   0.0000000   0.0000000   2.6288670   2.6288670   2.6288670
 AtZNuc=   9.0000000   9.0000000   6.0000000   8.0000000   6.0000000   6.0000000   6.0000000   9.0000000   9.0000000   9.0000000

  Atom        61          62          63          64          65          66          67          68          69          70
 IAtWgt=          19          19          19          12          12          19          19          19          19          12
 AtmWgt=  18.9984033  18.9984033  18.9984033  12.0000000  12.0000000  18.9984033  18.9984033  18.9984033  18.9984033  12.0000000
 NucSpn=           1           1           1           0           0           1           1           1           1           0
 AtZEff=  -0.0000000  -0.0000000  -0.0000000  -0.0000000  -0.0000000  -0.0000000  -0.0000000  -0.0000000  -0.0000000  -0.0000000
 NQMom=    0.0000000   0.0000000   0.0000000   0.0000000   0.0000000   0.0000000   0.0000000   0.0000000   0.0000000   0.0000000
 NMagM=    2.6288670   2.6288670   2.6288670   0.0000000   0.0000000   2.6288670   2.6288670   2.6288670   2.6288670   0.0000000
 AtZNuc=   9.0000000   9.0000000   9.0000000   6.0000000   6.0000000   9.0000000   9.0000000   9.0000000   9.0000000   6.0000000

  Atom        71          72          73          74          75          76          77          78          79          80
 IAtWgt=          16          12          12          12          19          19          19          19          19          19
 AtmWgt=  15.9949146  12.0000000  12.0000000  12.0000000  18.9984033  18.9984033  18.9984033  18.9984033  18.9984033  18.9984033
 NucSpn=           0           0           0           0           1           1           1           1           1           1
 AtZEff=  -0.0000000  -0.0000000  -0.0000000  -0.0000000  -0.0000000  -0.0000000  -0.0000000  -0.0000000  -0.0000000  -0.0000000
 NQMom=    0.0000000   0.0000000   0.0000000   0.0000000   0.0000000   0.0000000   0.0000000   0.0000000   0.0000000   0.0000000
 NMagM=    0.0000000   0.0000000   0.0000000   0.0000000   2.6288670   2.6288670   2.6288670   2.6288670   2.6288670   2.6288670
 AtZNuc=   8.0000000   6.0000000   6.0000000   6.0000000   9.0000000   9.0000000   9.0000000   9.0000000   9.0000000   9.0000000

  Atom        81          82          83          84          85          86          87          88          89          90
 IAtWgt=          12          12          19          19          19          19          12          16          12          12
 AtmWgt=  12.0000000  12.0000000  18.9984033  18.9984033  18.9984033  18.9984033  12.0000000  15.9949146  12.0000000  12.0000000
 NucSpn=           0           0           1           1           1           1           0           0           0           0
 AtZEff=  -0.0000000  -0.0000000  -0.0000000  -0.0000000  -0.0000000  -0.0000000  -0.0000000  -0.0000000  -0.0000000  -0.0000000
 NQMom=    0.0000000   0.0000000   0.0000000   0.0000000   0.0000000   0.0000000   0.0000000   0.0000000   0.0000000   0.0000000
 NMagM=    0.0000000   0.0000000   2.6288670   2.6288670   2.6288670   2.6288670   0.0000000   0.0000000   0.0000000   0.0000000
 AtZNuc=   6.0000000   6.0000000   9.0000000   9.0000000   9.0000000   9.0000000   6.0000000   8.0000000   6.0000000   6.0000000

  Atom        91          92          93          94          95          96          97          98          99         100
 IAtWgt=          12          19          19          19          19          19          19          12          12          19
 AtmWgt=  12.0000000  18.9984033  18.9984033  18.9984033  18.9984033  18.9984033  18.9984033  12.0000000  12.0000000  18.9984033
 NucSpn=           0           1           1           1           1           1           1           0           0           1
 AtZEff=  -0.0000000  -0.0000000  -0.0000000  -0.0000000  -0.0000000  -0.0000000  -0.0000000  -0.0000000  -0.0000000  -0.0000000
 NQMom=    0.0000000   0.0000000   0.0000000   0.0000000   0.0000000   0.0000000   0.0000000   0.0000000   0.0000000   0.0000000
 NMagM=    0.0000000   2.6288670   2.6288670   2.6288670   2.6288670   2.6288670   2.6288670   0.0000000   0.0000000   2.6288670
 AtZNuc=   6.0000000   9.0000000   9.0000000   9.0000000   9.0000000   9.0000000   9.0000000   6.0000000   6.0000000   9.0000000

  Atom       101         102         103         104         105         106         107         108         109         110
 IAtWgt=          19          19          19          12          16          12          12          12          19          19
 AtmWgt=  18.9984033  18.9984033  18.9984033  12.0000000  15.9949146  12.0000000  12.0000000  12.0000000  18.9984033  18.9984033
 NucSpn=           1           1           1           0           0           0           0           0           1           1
 AtZEff=  -0.0000000  -0.0000000  -0.0000000  -0.0000000  -0.0000000  -0.0000000  -0.0000000  -0.0000000  -0.0000000  -0.0000000
 NQMom=    0.0000000   0.0000000   0.0000000   0.0000000   0.0000000   0.0000000   0.0000000   0.0000000   0.0000000   0.0000000
 NMagM=    2.6288670   2.6288670   2.6288670   0.0000000   0.0000000   0.0000000   0.0000000   0.0000000   2.6288670   2.6288670
 AtZNuc=   9.0000000   9.0000000   9.0000000   6.0000000   8.0000000   6.0000000   6.0000000   6.0000000   9.0000000   9.0000000

  Atom       111         112         113         114         115         116         117         118         119         120
 IAtWgt=          19          19          19          19          12          12          19          19          19          19
 AtmWgt=  18.9984033  18.9984033  18.9984033  18.9984033  12.0000000  12.0000000  18.9984033  18.9984033  18.9984033  18.9984033
 NucSpn=           1           1           1           1           0           0           1           1           1           1
 AtZEff=  -0.0000000  -0.0000000  -0.0000000  -0.0000000  -0.0000000  -0.0000000  -0.0000000  -0.0000000  -0.0000000  -0.0000000
 NQMom=    0.0000000   0.0000000   0.0000000   0.0000000   0.0000000   0.0000000   0.0000000   0.0000000   0.0000000   0.0000000
 NMagM=    2.6288670   2.6288670   2.6288670   2.6288670   0.0000000   0.0000000   2.6288670   2.6288670   2.6288670   2.6288670
 AtZNuc=   9.0000000   9.0000000   9.0000000   9.0000000   6.0000000   6.0000000   9.0000000   9.0000000   9.0000000   9.0000000

  Atom       121         122         123         124         125         126         127         128         129         130
 IAtWgt=          12          16          12          12          12          19          19          19          19          19
 AtmWgt=  12.0000000  15.9949146  12.0000000  12.0000000  12.0000000  18.9984033  18.9984033  18.9984033  18.9984033  18.9984033
 NucSpn=           0           0           0           0           0           1           1           1           1           1
 AtZEff=  -0.0000000  -0.0000000  -0.0000000  -0.0000000  -0.0000000  -0.0000000  -0.0000000  -0.0000000  -0.0000000  -0.0000000
 NQMom=    0.0000000   0.0000000   0.0000000   0.0000000   0.0000000   0.0000000   0.0000000   0.0000000   0.0000000   0.0000000
 NMagM=    0.0000000   0.0000000   0.0000000   0.0000000   0.0000000   2.6288670   2.6288670   2.6288670   2.6288670   2.6288670
 AtZNuc=   6.0000000   8.0000000   6.0000000   6.0000000   6.0000000   9.0000000   9.0000000   9.0000000   9.0000000   9.0000000

  Atom       131         132         133         134         135         136         137         138
 IAtWgt=          19          12          12           1          19          19          19          19
 AtmWgt=  18.9984033  12.0000000  12.0000000   1.0078250  18.9984033  18.9984033  18.9984033  18.9984033
 NucSpn=           1           0           0           1           1           1           1           1
 AtZEff=  -0.0000000  -0.0000000  -0.0000000  -0.0000000  -0.0000000  -0.0000000  -0.0000000  -0.0000000
 NQMom=    0.0000000   0.0000000   0.0000000   0.0000000   0.0000000   0.0000000   0.0000000   0.0000000
 NMagM=    2.6288670   0.0000000   0.0000000   2.7928460   2.6288670   2.6288670   2.6288670   2.6288670
 AtZNuc=   9.0000000   6.0000000   6.0000000   1.0000000   9.0000000   9.0000000   9.0000000   9.0000000
 Using perturbation frequencies:    0.000000    0.069425    0.077547    0.093732
 Leave Link  101 at Tue Oct 10 14:49:53 2023, MaxMem= 12482248704 cpu:               2.4 elap:               0.1
 (Enter /opt/ohpc/pub/apps/gaussian/16b01-sse4/g16/l106.exe)
 Differentiate once with respect to electric field.
 Nuclear step= 0.001000 Angstroms, electric field step= 0.000333 atomic units, NStep=1.
 Leave Link  106 at Tue Oct 10 14:49:53 2023, MaxMem= 12482248704 cpu:               0.8 elap:               0.0
 (Enter /opt/ohpc/pub/apps/gaussian/16b01-sse4/g16/l202.exe)
 Symmetry turned off by external request.
 Stoichiometry    C48H2F80O8
 Framework group  C1[X(C48H2F80O8)]
 Deg. of freedom   408
 Full point group                 C1      NOp   1
                          Input orientation:                          
 ---------------------------------------------------------------------
 Center     Atomic      Atomic             Coordinates (Angstroms)
 Number     Number       Type             X           Y           Z
 ---------------------------------------------------------------------
      1          6           0       13.774187   -5.768302    0.630225
      2          8           0       12.755117   -4.999805    0.065432
      3          6           0       11.586925   -5.046598    0.821710
      4          6           0       11.588769   -6.452969    1.510796
      5          6           0       13.113443   -6.586684    1.780195
      6          9           0       13.411847   -6.032840    2.970188
      7          9           0       14.752685   -4.974324    1.087601
      8          9           0       13.541221   -7.869646    1.777152
      9          9           0       14.288372   -6.566415   -0.313010
     10          9           0       10.891367   -6.420487    2.684138
     11          9           0       11.627412   -4.137267    1.856023
     12          6           0       11.066003   -7.664651    0.716813
     13          1           0       11.230044   -8.576979    1.296811
     14          6           0       10.390276   -4.653467   -0.068539
     15          9           0        9.739648   -7.533195    0.483349
     16          9           0       11.728017   -7.758115   -0.466293
     17          9           0        9.270167   -4.844020    0.665722
     18          9           0       10.370561   -5.482013   -1.139249
     19          6           0       11.953015   -0.245456   -0.451826
     20          8           0       10.704761    0.013169   -1.012587
     21          6           0        9.690001   -0.608348   -0.298614
     22          6           0       10.307939   -1.968916    0.247955
     23          6           0       11.751907   -1.420298    0.557133
     24          9           0       11.765397   -0.952402    1.818212
     25          9           0       12.426432    0.849500    0.159700
     26          9           0       12.750917   -2.308153    0.410006
     27          9           0       12.797590   -0.578538   -1.433662
     28          9           0        9.663491   -2.313981    1.396911
     29          9           0        9.395793    0.085212    0.856932
     30          6           0       10.291945   -3.205996   -0.699707
     31          6           0        8.410274   -0.559116   -1.164478
     32          9           0        9.092435   -3.266787   -1.331800
     33          9           0       11.257065   -3.055595   -1.637223
     34          9           0        7.477306   -1.330966   -0.564437
     35          9           0        8.697886   -1.048297   -2.392875
     36          6           0        8.060332    4.108633   -0.580201
     37          8           0        6.791512    3.941351   -1.128945
     38          6           0        6.150489    2.836693   -0.587439
     39          6           0        7.289345    1.761050   -0.306686
     40          6           0        8.408629    2.773140    0.152651
     41          9           0        8.309711    2.936380    1.483891
     42          9           0        8.070405    5.147590    0.267055
     43          9           0        9.671011    2.421951   -0.152278
     44          9           0        8.918911    4.365025   -1.572486
     45          9           0        6.891899    0.966090    0.725286
     46          9           0        5.667102    3.110334    0.675518
     47          6           0        7.721397    0.836069   -1.482610
     48          6           0        4.912596    2.537204   -1.463802
     49          9           0        6.617172    0.435501   -2.162713
     50          9           0        8.505117    1.541633   -2.331081
     51          9           0        4.401762    1.351848   -1.063572
     52          9           0        5.303218    2.461872   -2.757115
     53          6           0        2.758542    6.450879    0.048306
     54          8           0        1.632920    5.898904   -0.557684
     55          6           0        1.519020    4.546218   -0.271789
     56          6           0        3.006917    3.988418   -0.183208
     57          6           0        3.651329    5.252765    0.505571
     58          9           0        3.567572    5.095683    1.838623
     59          9           0        2.401292    7.218399    1.087791
     60          9           0        4.930276    5.507633    0.174883
     61          9           0        3.386337    7.219540   -0.847659
     62          9           0        3.019154    2.913132    0.652545
     63          9           0        1.038044    4.345251    1.005608
     64          6           0        3.706405    3.569491   -1.510025
     65          6           0        0.457354    3.953405   -1.226326
     66          9           0        2.818538    2.902095   -2.290157
     67          9           0        4.093965    4.684129   -2.172916
     68          9           0        0.487853    2.609059   -1.092031
     69          9           0        0.771404    4.300760   -2.495803
     70          6           0       -2.992864    6.277905    0.995574
     71          8           0       -3.835239    5.454302    0.253448
     72          6           0       -3.383631    4.142556    0.251855
     73          6           0       -1.794341    4.224977    0.268272
     74          6           0       -1.670889    5.475868    1.221364
     75          9           0       -1.607811    5.035059    2.490345
     76          9           0       -3.568535    6.608400    2.160372
     77          9           0       -0.621797    6.284965    0.986977
     78          9           0       -2.776742    7.398404    0.298820
     79          9           0       -1.306398    3.102112    0.864883
     80          9           0       -3.672199    3.514371    1.445786
     81          6           0       -1.061932    4.397620   -1.095070
     82          6           0       -4.171878    3.377192   -0.835706
     83          9           0       -1.650344    3.598525   -2.021054
     84          9           0       -1.191898    5.681488   -1.503523
     85          9           0       -3.600300    2.161107   -0.979407
     86          9           0       -4.093048    4.067677   -1.996774
     87          6           0       -8.133321    3.626443    1.710503
     88          8           0       -8.618056    2.700700    0.790592
     89          6           0       -7.682332    1.709316    0.532664
     90          6           0       -6.259011    2.417057    0.613433
     91          6           0       -6.591143    3.393893    1.806461
     92          9           0       -6.287695    2.770994    2.959105
     93          9           0       -8.727296    3.459134    2.900708
     94          9           0       -5.965301    4.584554    1.775101
     95          9           0       -8.419805    4.854216    1.265001
     96          9           0       -5.331683    1.489713    0.981021
     97          9           0       -7.629926    0.792996    1.562495
     98          6           0       -5.732491    3.138201   -0.662418
     99          6           0       -8.159220    0.927328   -0.712686
    100          9           0       -6.003539    2.373497   -1.750479
    101          9           0       -6.385437    4.315579   -0.802173
    102          9           0       -7.158856    0.098882   -1.085917
    103          9           0       -8.425736    1.809573   -1.703607
    104          6           0      -11.745170   -0.950205    1.708227
    105          8           0      -11.871873   -1.786469    0.603014
    106          6           0      -10.634140   -2.244998    0.173767
    107          6           0       -9.608562   -1.058330    0.442352
    108          6           0      -10.235501   -0.557432    1.800041
    109          9           0       -9.644468   -1.221736    2.809012
    110          9           0      -12.154711   -1.577070    2.820369
    111          9           0      -10.139488    0.764636    2.032042
    112          9           0      -12.522096    0.121719    1.518330
    113          9           0       -8.369723   -1.589432    0.639418
    114          9           0      -10.166461   -3.248906    0.995089
    115          6           0       -9.483197    0.052879   -0.641045
    116          6           0      -10.830903   -2.884643   -1.220403
    117          9           0       -9.484976   -0.521646   -1.870678
    118          9           0      -10.557698    0.871717   -0.557083
    119          9           0       -9.609196   -3.154212   -1.731056
    120          9           0      -11.480276   -2.001737   -2.014763
    121          6           0      -13.249245   -6.487769    0.588121
    122          8           0      -13.072232   -7.038015   -0.676435
    123          6           0      -11.764659   -6.855239   -1.126409
    124          6           0      -11.295548   -5.468886   -0.538857
    125          6           0      -12.007929   -5.577592    0.859445
    126          9           0      -11.167316   -6.185857    1.716791
    127          9           0      -13.355694   -7.455109    1.513125
    128          9           0      -12.415302   -4.415430    1.403457
    129          9           0      -14.386878   -5.781547    0.591726
    130          9           0       -9.938538   -5.479987   -0.405764
    131          9           0      -10.930196   -7.779861   -0.530043
    132          6           0      -11.696895   -4.204836   -1.353889
    133          6           0      -11.736330   -7.230790   -2.619731
    134          1           0      -11.846116   -8.317853   -2.690873
    135          9           0      -11.579891   -4.478918   -2.678390
    136          9           0      -12.995003   -3.910341   -1.103440
    137          9           0      -10.543861   -6.867549   -3.150837
    138          9           0      -12.745192   -6.643370   -3.300475
 ---------------------------------------------------------------------
 Rotational constants (GHZ):           0.0109405           0.0027604           0.0023037
 Leave Link  202 at Tue Oct 10 14:49:53 2023, MaxMem= 12482248704 cpu:               0.9 elap:               0.0
 (Enter /opt/ohpc/pub/apps/gaussian/16b01-sse4/g16/l301.exe)
 Standard basis: 6-31++G(d,p) (6D, 7F)
 Ernie: Thresh=  0.10000D-02 Tol=  0.10000D-05 Strict=F.
  2596 basis functions,  4368 primitive gaussians,  2596 cartesian basis functions
   537 alpha electrons      537 beta electrons
       nuclear repulsion energy     38967.3871874379 Hartrees.
 IExCor=10402 DFT=T Ex=LC-B+HF Corr=LYP ExCW=0 ScaHFX=  1.000000
 ScaDFX=  1.000000  1.000000  1.000000  1.000000 ScalE2=  1.000000  1.000000
 IRadAn=      5 IRanWt=     -1 IRanGd=            0 ICorTp=0 IEmpDi=  4
 HFx  wShort=  0.000000 wLong=  0.220000 cFull=  0.000000 cShort=  0.000000 cLong=  1.000000
 DFx  wShort=  0.000000 wLong=  0.220000 cFull=  0.000000 cShort=  0.000000 cLong=  1.000000
 NAtoms=  138 NActive=  138 NUniq=  138 SFac= 1.00D+00 NAtFMM=   60 NAOKFM=T Big=T
 Integral buffers will be    131072 words long.
 Raffenetti 2 integral format.
 Two-electron integral symmetry is turned off.
 Leave Link  301 at Tue Oct 10 14:49:53 2023, MaxMem= 12482248704 cpu:               1.2 elap:               0.1
 (Enter /opt/ohpc/pub/apps/gaussian/16b01-sse4/g16/l302.exe)
 NPDir=0 NMtPBC=     1 NCelOv=     1 NCel=       1 NClECP=     1 NCelD=      1
         NCelK=      1 NCelE2=     1 NClLst=     1 CellRange=     0.0.
 One-electron integrals computed using PRISM.
 NBasis=  2596 RedAO= T EigKep=  1.04D-06  NBF=  2596
 NBsUse=  2586 1.00D-06 EigRej=  8.61D-07 NBFU=  2586
 Precomputing XC quadrature grid using
 IXCGrd= 4 IRadAn=           5 IRanWt=          -1 IRanGd=           0 AccXCQ= 0.00D+00.
 Generated NRdTot=       0 NPtTot=           0 NUsed=           0 NTot=          32
 NSgBfM=  1763  1763  1763  1763  1763 MxSgAt=   138 MxSgA2=   138.
 Leave Link  302 at Tue Oct 10 14:50:12 2023, MaxMem= 12482248704 cpu:             601.9 elap:              18.8
 (Enter /opt/ohpc/pub/apps/gaussian/16b01-sse4/g16/l303.exe)
 DipDrv:  MaxL=1.
 Leave Link  303 at Tue Oct 10 14:50:13 2023, MaxMem= 12482248704 cpu:               8.6 elap:               0.4
 (Enter /opt/ohpc/pub/apps/gaussian/16b01-sse4/g16/l401.exe)
 ExpMin= 3.60D-02 ExpMax= 7.00D+03 ExpMxC= 1.05D+03 IAcc=3 IRadAn=         5 AccDes= 0.00D+00
 Harris functional with IExCor=10402 and IRadAn=       5 diagonalized for initial guess.
 HarFok:  IExCor=10402 AccDes= 0.00D+00 IRadAn=         5 IDoV= 1 UseB2=F ITyADJ=14
 ICtDFT=  3500011 ScaDFX=  1.000000  1.000000  1.000000  1.000000
 FoFCou: FMM=F IPFlag=           0 FMFlag=      100000 FMFlg1=        2001
         NFxFlg=           0 DoJE=T BraDBF=F KetDBF=T FulRan=T
         wScrn=  0.000000 ICntrl=       500 IOpCl=  0 I1Cent=   200000004 NGrid=           0
         NMat0=    1 NMatS0=      1 NMatT0=    0 NMatD0=    1 NMtDS0=    0 NMtDT0=    0
 Symmetry not used in FoFCou.
 Harris En= -10276.2811571282    
 JPrj=0 DoOrth=F DoCkMO=F.
 Leave Link  401 at Tue Oct 10 14:50:33 2023, MaxMem= 12482248704 cpu:             653.8 elap:              20.5
 (Enter /opt/ohpc/pub/apps/gaussian/16b01-sse4/g16/l502.exe)
 Two-electron integral symmetry not used.
 Closed shell SCF:
 Using DIIS extrapolation, IDIIS=  1040.
 NGot= 12482248704 LenX= 12468669776 LenY= 12461927964
 Requested convergence on RMS density matrix=1.00D-08 within 128 cycles.
 Requested convergence on MAX density matrix=1.00D-06.
 Requested convergence on             energy=1.00D-06.
 No special actions if energy rises.
 Fock matrices will be formed incrementally for  20 cycles.

 Cycle   1  Pass 1  IDiag  1:
 FoFJK:  IHMeth= 1 ICntrl=       0 DoSepK=T KAlg= 0 I1Cent=           0 FoldK=F
 IRaf=         1 NMat=       1 IRICut=       1 DoRegI=T DoRafI=F ISym2E= 0 IDoP0=0 IntGTp=1.
 FoFCou: FMM=T IPFlag=           0 FMFlag=      100000 FMFlg1=        2001
         NFxFlg=           0 DoJE=T BraDBF=F KetDBF=F FulRan=T
         wScrn=  0.000000 ICntrl=       500 IOpCl=  0 I1Cent=           0 NGrid=           0
         NMat0=    1 NMatS0=      1 NMatT0=    0 NMatD0=    1 NMtDS0=    0 NMtDT0=    0
 Symmetry not used in FoFCou.
 FMM levels:  10  Number of levels for PrismC:   9
 E= -10404.2103602235    
 DIIS: error= 8.11D-03 at cycle   1 NSaved=   1.
 NSaved= 1 IEnMin= 1 EnMin= -10404.2103602235     IErMin= 1 ErrMin= 8.11D-03
 ErrMax= 8.11D-03  0.00D+00 EMaxC= 1.00D-01 BMatC= 1.54D+00 BMatP= 1.54D+00
 IDIUse=3 WtCom= 9.19D-01 WtEn= 8.11D-02
 Coeff-Com:  0.100D+01
 Coeff-En:   0.100D+01
 Coeff:      0.100D+01
 Gap=     0.519 Goal=   None    Shift=    0.000
 GapD=    0.519 DampG=2.000 DampE=1.000 DampFc=2.0000 IDamp=-1.
 RMSDP=7.66D-03 MaxDP=2.68D+00              OVMax= 9.50D-02

 Cycle   2  Pass 1  IDiag  1:
 RMSU=  7.06D-03    CP:  1.10D+00
 E= -10403.3325055859     Delta-E=        0.877854637591 Rises=F Damp=F
 DIIS: error= 1.01D-02 at cycle   2 NSaved=   2.
 NSaved= 2 IEnMin= 1 EnMin= -10404.2103602235     IErMin= 1 ErrMin= 8.11D-03
 ErrMax= 1.01D-02  0.00D+00 EMaxC= 1.00D-01 BMatC= 3.06D+00 BMatP= 1.54D+00
 IDIUse=2 WtCom= 0.00D+00 WtEn= 1.00D+00
 Coeff-En:   0.634D+00 0.366D+00
 Coeff:      0.634D+00 0.366D+00
 Gap=     0.438 Goal=   None    Shift=    0.000
 RMSDP=6.59D-03 MaxDP=3.40D+00 DE= 8.78D-01 OVMax= 5.03D-02

 Cycle   3  Pass 1  IDiag  1:
 RMSU=  1.69D-03    CP:  9.12D-01  5.39D-01
 E= -10405.2720949089     Delta-E=       -1.939589322967 Rises=F Damp=F
 DIIS: error= 1.05D-03 at cycle   3 NSaved=   3.
 NSaved= 3 IEnMin= 3 EnMin= -10405.2720949089     IErMin= 3 ErrMin= 1.05D-03
 ErrMax= 1.05D-03  0.00D+00 EMaxC= 1.00D-01 BMatC= 2.88D-02 BMatP= 1.54D+00
 IDIUse=3 WtCom= 9.89D-01 WtEn= 1.05D-02
 Coeff-Com:  0.171D+00 0.623D-01 0.767D+00
 Coeff-En:   0.000D+00 0.000D+00 0.100D+01
 Coeff:      0.169D+00 0.616D-01 0.769D+00
 Gap=     0.426 Goal=   None    Shift=    0.000
 RMSDP=1.09D-03 MaxDP=4.16D-01 DE=-1.94D+00 OVMax= 6.64D-03

 Cycle   4  Pass 1  IDiag  1:
 RMSU=  3.31D-04    CP:  8.79D-01  4.99D-01  1.15D+00
 E= -10405.2912318277     Delta-E=       -0.019136918883 Rises=F Damp=F
 DIIS: error= 3.20D-04 at cycle   4 NSaved=   4.
 NSaved= 4 IEnMin= 4 EnMin= -10405.2912318277     IErMin= 4 ErrMin= 3.20D-04
 ErrMax= 3.20D-04  0.00D+00 EMaxC= 1.00D-01 BMatC= 3.22D-03 BMatP= 2.88D-02
 IDIUse=3 WtCom= 9.97D-01 WtEn= 3.20D-03
 Coeff-Com:  0.388D-01 0.867D-03 0.349D+00 0.612D+00
 Coeff-En:   0.000D+00 0.000D+00 0.000D+00 0.100D+01
 Coeff:      0.387D-01 0.865D-03 0.348D+00 0.613D+00
 Gap=     0.426 Goal=   None    Shift=    0.000
 RMSDP=1.46D-04 MaxDP=4.80D-02 DE=-1.91D-02 OVMax= 3.23D-03

 Cycle   5  Pass 1  IDiag  1:
 RMSU=  1.01D-04    CP:  8.75D-01  4.95D-01  1.17D+00  9.45D-01
 E= -10405.2931303664     Delta-E=       -0.001898538671 Rises=F Damp=F
 DIIS: error= 1.29D-04 at cycle   5 NSaved=   5.
 NSaved= 5 IEnMin= 5 EnMin= -10405.2931303664     IErMin= 5 ErrMin= 1.29D-04
 ErrMax= 1.29D-04  0.00D+00 EMaxC= 1.00D-01 BMatC= 3.90D-04 BMatP= 3.22D-03
 IDIUse=3 WtCom= 9.99D-01 WtEn= 1.29D-03
 Coeff-Com:  0.237D-02-0.600D-02 0.974D-01 0.312D+00 0.595D+00
 Coeff-En:   0.000D+00 0.000D+00 0.000D+00 0.101D-01 0.990D+00
 Coeff:      0.237D-02-0.600D-02 0.973D-01 0.311D+00 0.595D+00
 Gap=     0.426 Goal=   None    Shift=    0.000
 RMSDP=5.18D-05 MaxDP=1.10D-02 DE=-1.90D-03 OVMax= 1.13D-03

 Cycle   6  Pass 1  IDiag  1:
 RMSU=  3.66D-05    CP:  8.75D-01  4.97D-01  1.18D+00  1.03D+00  9.38D-01
 E= -10405.2933797323     Delta-E=       -0.000249365847 Rises=F Damp=F
 DIIS: error= 2.07D-05 at cycle   6 NSaved=   6.
 NSaved= 6 IEnMin= 6 EnMin= -10405.2933797323     IErMin= 6 ErrMin= 2.07D-05
 ErrMax= 2.07D-05  0.00D+00 EMaxC= 1.00D-01 BMatC= 1.97D-05 BMatP= 3.90D-04
 IDIUse=1 WtCom= 1.00D+00 WtEn= 0.00D+00
 Coeff-Com: -0.183D-02-0.248D-02 0.128D-01 0.820D-01 0.247D+00 0.662D+00
 Coeff:     -0.183D-02-0.248D-02 0.128D-01 0.820D-01 0.247D+00 0.662D+00
 Gap=     0.426 Goal=   None    Shift=    0.000
 RMSDP=1.96D-05 MaxDP=5.95D-03 DE=-2.49D-04 OVMax= 2.89D-04

 Cycle   7  Pass 1  IDiag  1:
 RMSU=  1.15D-05    CP:  8.75D-01  4.97D-01  1.19D+00  1.05D+00  1.02D+00
                    CP:  1.01D+00
 E= -10405.2933935888     Delta-E=       -0.000013856588 Rises=F Damp=F
 DIIS: error= 7.54D-06 at cycle   7 NSaved=   7.
 NSaved= 7 IEnMin= 7 EnMin= -10405.2933935888     IErMin= 7 ErrMin= 7.54D-06
 ErrMax= 7.54D-06  0.00D+00 EMaxC= 1.00D-01 BMatC= 3.08D-06 BMatP= 1.97D-05
 IDIUse=1 WtCom= 1.00D+00 WtEn= 0.00D+00
 Coeff-Com: -0.106D-02-0.491D-03-0.421D-02 0.874D-02 0.612D-01 0.327D+00
 Coeff-Com:  0.609D+00
 Coeff:     -0.106D-02-0.491D-03-0.421D-02 0.874D-02 0.612D-01 0.327D+00
 Coeff:      0.609D+00
 Gap=     0.426 Goal=   None    Shift=    0.000
 RMSDP=8.25D-06 MaxDP=2.61D-03 DE=-1.39D-05 OVMax= 1.01D-04

 Cycle   8  Pass 1  IDiag  1:
 RMSU=  2.62D-06    CP:  8.74D-01  4.97D-01  1.19D+00  1.06D+00  1.04D+00
                    CP:  1.11D+00  1.00D+00
 E= -10405.2933957873     Delta-E=       -0.000002198467 Rises=F Damp=F
 DIIS: error= 2.10D-06 at cycle   8 NSaved=   8.
 NSaved= 8 IEnMin= 8 EnMin= -10405.2933957873     IErMin= 8 ErrMin= 2.10D-06
 ErrMax= 2.10D-06  0.00D+00 EMaxC= 1.00D-01 BMatC= 2.44D-07 BMatP= 3.08D-06
 IDIUse=1 WtCom= 1.00D+00 WtEn= 0.00D+00
 Coeff-Com: -0.234D-03 0.149D-03-0.357D-02-0.580D-02-0.516D-02 0.473D-01
 Coeff-Com:  0.235D+00 0.733D+00
 Coeff:     -0.234D-03 0.149D-03-0.357D-02-0.580D-02-0.516D-02 0.473D-01
 Coeff:      0.235D+00 0.733D+00
 Gap=     0.426 Goal=   None    Shift=    0.000
 RMSDP=2.58D-06 MaxDP=6.10D-04 DE=-2.20D-06 OVMax= 5.20D-05

 Cycle   9  Pass 1  IDiag  1:
 RMSU=  9.80D-07    CP:  8.74D-01  4.97D-01  1.19D+00  1.06D+00  1.05D+00
                    CP:  1.14D+00  1.08D+00  1.03D+00
 E= -10405.2933959659     Delta-E=       -0.000000178559 Rises=F Damp=F
 DIIS: error= 9.90D-07 at cycle   9 NSaved=   9.
 NSaved= 9 IEnMin= 9 EnMin= -10405.2933959659     IErMin= 9 ErrMin= 9.90D-07
 ErrMax= 9.90D-07  0.00D+00 EMaxC= 1.00D-01 BMatC= 4.37D-08 BMatP= 2.44D-07
 IDIUse=1 WtCom= 1.00D+00 WtEn= 0.00D+00
 Coeff-Com:  0.124D-04 0.145D-03-0.125D-02-0.379D-02-0.105D-01-0.234D-01
 Coeff-Com:  0.283D-01 0.351D+00 0.659D+00
 Coeff:      0.124D-04 0.145D-03-0.125D-02-0.379D-02-0.105D-01-0.234D-01
 Coeff:      0.283D-01 0.351D+00 0.659D+00
 Gap=     0.426 Goal=   None    Shift=    0.000
 RMSDP=9.18D-07 MaxDP=6.23D-04 DE=-1.79D-07 OVMax= 1.97D-05

 Cycle  10  Pass 1  IDiag  1:
 RMSU=  3.57D-07    CP:  8.74D-01  4.97D-01  1.19D+00  1.06D+00  1.06D+00
                    CP:  1.15D+00  1.11D+00  1.07D+00  9.75D-01
 E= -10405.2933960011     Delta-E=       -0.000000035237 Rises=F Damp=F
 DIIS: error= 1.75D-07 at cycle  10 NSaved=  10.
 NSaved=10 IEnMin=10 EnMin= -10405.2933960011     IErMin=10 ErrMin= 1.75D-07
 ErrMax= 1.75D-07  0.00D+00 EMaxC= 1.00D-01 BMatC= 1.27D-09 BMatP= 4.37D-08
 IDIUse=1 WtCom= 1.00D+00 WtEn= 0.00D+00
 Coeff-Com:  0.163D-04 0.287D-04-0.134D-03-0.690D-03-0.253D-02-0.924D-02
 Coeff-Com: -0.495D-02 0.571D-01 0.175D+00 0.785D+00
 Coeff:      0.163D-04 0.287D-04-0.134D-03-0.690D-03-0.253D-02-0.924D-02
 Coeff:     -0.495D-02 0.571D-01 0.175D+00 0.785D+00
 Gap=     0.426 Goal=   None    Shift=    0.000
 RMSDP=1.59D-07 MaxDP=6.41D-05 DE=-3.52D-08 OVMax= 6.06D-06

 Cycle  11  Pass 1  IDiag  1:
 RMSU=  8.91D-08    CP:  8.74D-01  4.97D-01  1.19D+00  1.06D+00  1.06D+00
                    CP:  1.15D+00  1.12D+00  1.08D+00  1.03D+00  1.05D+00
 E= -10405.2933960026     Delta-E=       -0.000000001506 Rises=F Damp=F
 DIIS: error= 1.27D-07 at cycle  11 NSaved=  11.
 NSaved=11 IEnMin=11 EnMin= -10405.2933960026     IErMin=11 ErrMin= 1.27D-07
 ErrMax= 1.27D-07  0.00D+00 EMaxC= 1.00D-01 BMatC= 5.41D-10 BMatP= 1.27D-09
 IDIUse=1 WtCom= 1.00D+00 WtEn= 0.00D+00
 Coeff-Com:  0.745D-05-0.962D-05 0.140D-03 0.264D-03 0.379D-03-0.105D-02
 Coeff-Com: -0.712D-02-0.265D-01-0.183D-01 0.418D+00 0.635D+00
 Coeff:      0.745D-05-0.962D-05 0.140D-03 0.264D-03 0.379D-03-0.105D-02
 Coeff:     -0.712D-02-0.265D-01-0.183D-01 0.418D+00 0.635D+00
 Gap=     0.426 Goal=   None    Shift=    0.000
 RMSDP=6.25D-08 MaxDP=2.62D-05 DE=-1.51D-09 OVMax= 2.82D-06

 Cycle  12  Pass 1  IDiag  1:
 RMSU=  3.70D-08    CP:  8.74D-01  4.97D-01  1.19D+00  1.06D+00  1.06D+00
                    CP:  1.15D+00  1.12D+00  1.09D+00  1.04D+00  1.11D+00
                    CP:  9.92D-01
 E= -10405.2933960029     Delta-E=       -0.000000000240 Rises=F Damp=F
 DIIS: error= 3.24D-08 at cycle  12 NSaved=  12.
 NSaved=12 IEnMin=12 EnMin= -10405.2933960029     IErMin=12 ErrMin= 3.24D-08
 ErrMax= 3.24D-08  0.00D+00 EMaxC= 1.00D-01 BMatC= 2.50D-11 BMatP= 5.41D-10
 IDIUse=1 WtCom= 1.00D+00 WtEn= 0.00D+00
 Coeff-Com:  0.121D-05-0.609D-05 0.589D-04 0.150D-03 0.330D-03 0.544D-03
 Coeff-Com: -0.172D-02-0.138D-01-0.247D-01 0.464D-01 0.204D+00 0.789D+00
 Coeff:      0.121D-05-0.609D-05 0.589D-04 0.150D-03 0.330D-03 0.544D-03
 Coeff:     -0.172D-02-0.138D-01-0.247D-01 0.464D-01 0.204D+00 0.789D+00
 Gap=     0.426 Goal=   None    Shift=    0.000
 RMSDP=3.26D-08 MaxDP=1.98D-05 DE=-2.40D-10 OVMax= 1.08D-06

 Cycle  13  Pass 1  IDiag  1:
 RMSU=  1.50D-08    CP:  8.74D-01  4.97D-01  1.19D+00  1.06D+00  1.06D+00
                    CP:  1.15D+00  1.12D+00  1.09D+00  1.05D+00  1.14D+00
                    CP:  1.02D+00  1.05D+00
 E= -10405.2933960059     Delta-E=       -0.000000003078 Rises=F Damp=F
 DIIS: error= 1.31D-08 at cycle  13 NSaved=  13.
 NSaved=13 IEnMin=13 EnMin= -10405.2933960059     IErMin=13 ErrMin= 1.31D-08
 ErrMax= 1.31D-08  0.00D+00 EMaxC= 1.00D-01 BMatC= 2.86D-12 BMatP= 2.50D-11
 IDIUse=1 WtCom= 1.00D+00 WtEn= 0.00D+00
 Coeff-Com: -0.812D-07-0.164D-05 0.117D-04 0.366D-04 0.918D-04 0.288D-03
 Coeff-Com: -0.325D-04-0.316D-02-0.825D-02-0.164D-01 0.276D-01 0.294D+00
 Coeff-Com:  0.706D+00
 Coeff:     -0.812D-07-0.164D-05 0.117D-04 0.366D-04 0.918D-04 0.288D-03
 Coeff:     -0.325D-04-0.316D-02-0.825D-02-0.164D-01 0.276D-01 0.294D+00
 Coeff:      0.706D+00
 Gap=     0.426 Goal=   None    Shift=    0.000
 RMSDP=6.24D-09 MaxDP=1.82D-06 DE=-3.08D-09 OVMax= 3.11D-07

 Cycle  14  Pass 1  IDiag  1:
 RMSU=  4.54D-09    CP:  8.74D-01  4.97D-01  1.19D+00  1.06D+00  1.06D+00
                    CP:  1.15D+00  1.12D+00  1.09D+00  1.05D+00  1.14D+00
                    CP:  1.04D+00  1.11D+00  1.03D+00
 E= -10405.2933960065     Delta-E=       -0.000000000546 Rises=F Damp=F
 DIIS: error= 8.13D-09 at cycle  14 NSaved=  14.
 NSaved=14 IEnMin=14 EnMin= -10405.2933960065     IErMin=14 ErrMin= 8.13D-09
 ErrMax= 8.13D-09  0.00D+00 EMaxC= 1.00D-01 BMatC= 8.07D-13 BMatP= 2.86D-12
 IDIUse=1 WtCom= 1.00D+00 WtEn= 0.00D+00
 Coeff-Com: -0.218D-06 0.152D-06-0.357D-05-0.557D-05-0.796D-05 0.575D-04
 Coeff-Com:  0.280D-03 0.675D-03-0.237D-03-0.161D-01-0.190D-01 0.197D-01
 Coeff-Com:  0.377D+00 0.637D+00
 Coeff:     -0.218D-06 0.152D-06-0.357D-05-0.557D-05-0.796D-05 0.575D-04
 Coeff:      0.280D-03 0.675D-03-0.237D-03-0.161D-01-0.190D-01 0.197D-01
 Coeff:      0.377D+00 0.637D+00
 Gap=     0.426 Goal=   None    Shift=    0.000
 RMSDP=5.52D-09 MaxDP=9.49D-07 DE=-5.46D-10 OVMax= 1.23D-07

 SCF Done:  E(RLC-B+HF-LYP) =  -10405.2933960     A.U. after   14 cycles
            NFock= 14  Conv=0.55D-08     -V/T= 2.0070
 KE= 1.033264847077D+04 PE=-1.025614505271D+05 EE= 4.285612147292D+04
 Leave Link  502 at Tue Oct 10 15:16:20 2023, MaxMem= 12482248704 cpu:           48237.1 elap:            1546.9
 (Enter /opt/ohpc/pub/apps/gaussian/16b01-sse4/g16/l801.exe)
 DoSCS=F DFT=T ScalE2(SS,OS)=  1.000000  1.000000
 Range of M.O.s used for correlation:     1  2586
 NBasis=  2596 NAE=   537 NBE=   537 NFC=     0 NFV=     0
 NROrb=   2586 NOA=   537 NOB=   537 NVA=  2049 NVB=  2049

 **** Warning!!: The largest alpha MO coefficient is  0.12499152D+03

 Leave Link  801 at Tue Oct 10 15:16:22 2023, MaxMem= 12482248704 cpu:               3.2 elap:               0.2
 (Enter /opt/ohpc/pub/apps/gaussian/16b01-sse4/g16/l1002.exe)
 Minotr:  Closed shell wavefunction.
          Direct CPHF calculation.
          Differentiating once with respect to electric field.
                with respect to dipole field.
          Electric field/nuclear overlap derivatives assumed to be zero.
          Requested convergence is 1.0D-08 RMS, and 1.0D-07 maximum.
          NewPWx=F KeepS1=T KeepF1=T KeepIn=T MapXYZ=F SortEE=F KeepMc=T.
        66178 words used for storage of precomputed grid.
 Two-electron integral symmetry not used.
          MDV=   12482248704 using IRadAn=       4.
          Solving linear equations separately, MaxMat=      96.
          Doing perturbations at frequencies    0.000000    0.069425    0.077547    0.093732    0.138849
          Doing perturbations at frequencies    0.155093    0.187465
          There are    21 degrees of freedom in the 1st order CPHF.  IDoFFX=0 NUNeed=    21.
 LinEq1:  Iter=  0 NonCon=    21 RMS=1.67D-02 Max=1.63D+00 NDo=    21
 AX will form    21 AO Fock derivatives at one time.
 FoFJK:  IHMeth= 1 ICntrl=       0 DoSepK=T KAlg= 0 I1Cent=           0 FoldK=F
 IRaf=         1 NMat=      42 IRICut=       1 DoRegI=T DoRafI=F ISym2E= 0 IDoP0=0 IntGTp=1.
 FoFCou: FMM=T IPFlag=           0 FMFlag=      100000 FMFlg1=        2001
         NFxFlg=           0 DoJE=F BraDBF=F KetDBF=F FulRan=T
         wScrn=  0.000000 ICntrl=       500 IOpCl=  0 I1Cent=           0 NGrid=           0
         NMat0=   21 NMatS0=     21 NMatT0=    0 NMatD0=   21 NMtDS0=    0 NMtDT0=    0
 Symmetry not used in FoFCou.
 FMM levels:  10  Number of levels for PrismC:   9
 LinEq1:  Iter=  1 NonCon=    21 RMS=9.74D-03 Max=9.33D-01 NDo=    21
 LinEq1:  Iter=  2 NonCon=    21 RMS=5.58D-03 Max=6.88D-01 NDo=    21
 LinEq1:  Iter=  3 NonCon=    21 RMS=2.99D-03 Max=4.15D-01 NDo=    21
 LinEq1:  Iter=  4 NonCon=    21 RMS=1.92D-03 Max=2.75D-01 NDo=    21
 LinEq1:  Iter=  5 NonCon=    21 RMS=1.17D-03 Max=2.02D-01 NDo=    21
 LinEq1:  Iter=  6 NonCon=    21 RMS=6.99D-04 Max=1.06D-01 NDo=    21
 LinEq1:  Iter=  7 NonCon=    21 RMS=3.34D-04 Max=3.99D-02 NDo=    21
 LinEq1:  Iter=  8 NonCon=    21 RMS=2.11D-04 Max=2.68D-02 NDo=    21
 LinEq1:  Iter=  9 NonCon=    21 RMS=1.18D-04 Max=1.79D-02 NDo=    21
 LinEq1:  Iter= 10 NonCon=    21 RMS=5.73D-05 Max=9.09D-03 NDo=    21
 LinEq1:  Iter= 11 NonCon=    21 RMS=3.83D-05 Max=6.11D-03 NDo=    21
 LinEq1:  Iter= 12 NonCon=    21 RMS=2.31D-05 Max=3.03D-03 NDo=    21
 LinEq1:  Iter= 13 NonCon=    21 RMS=1.37D-05 Max=2.21D-03 NDo=    21
 LinEq1:  Iter= 14 NonCon=    21 RMS=6.47D-06 Max=8.57D-04 NDo=    21
 LinEq1:  Iter= 15 NonCon=    21 RMS=4.73D-06 Max=6.17D-04 NDo=    21
 LinEq1:  Iter= 16 NonCon=    21 RMS=2.32D-06 Max=4.86D-04 NDo=    21
 LinEq1:  Iter= 17 NonCon=    21 RMS=1.30D-06 Max=2.36D-04 NDo=    21
 LinEq1:  Iter= 18 NonCon=    21 RMS=9.26D-07 Max=1.78D-04 NDo=    21
 LinEq1:  Iter= 19 NonCon=    21 RMS=5.23D-07 Max=1.12D-04 NDo=    21
 LinEq1:  Iter= 20 NonCon=    21 RMS=2.83D-07 Max=5.48D-05 NDo=    21
 LinEq1:  Iter= 21 NonCon=    21 RMS=1.93D-07 Max=3.38D-05 NDo=    21
 LinEq1:  Iter= 22 NonCon=    21 RMS=1.04D-07 Max=1.53D-05 NDo=    21
 LinEq1:  Iter= 23 NonCon=    19 RMS=5.48D-08 Max=6.72D-06 NDo=    21
 LinEq1:  Iter= 24 NonCon=    18 RMS=3.05D-08 Max=3.05D-06 NDo=    21
 LinEq1:  Iter= 25 NonCon=    16 RMS=2.10D-08 Max=2.42D-06 NDo=    21
 LinEq1:  Iter= 26 NonCon=    10 RMS=1.02D-08 Max=1.41D-06 NDo=    21
 LinEq1:  Iter= 27 NonCon=     7 RMS=5.49D-09 Max=8.56D-07 NDo=    10
 LinEq1:  Iter= 28 NonCon=     5 RMS=3.69D-09 Max=7.22D-07 NDo=     7
 LinEq1:  Iter= 29 NonCon=     3 RMS=1.83D-09 Max=3.72D-07 NDo=     5
 LinEq1:  Iter= 30 NonCon=     3 RMS=9.79D-10 Max=2.36D-07 NDo=     3
 LinEq1:  Iter= 31 NonCon=     1 RMS=5.34D-10 Max=1.49D-07 NDo=     3
 LinEq1:  Iter= 32 NonCon=     1 RMS=3.80D-10 Max=1.05D-07 NDo=     1
 LinEq1:  Iter= 33 NonCon=     0 RMS=2.10D-10 Max=5.98D-08 NDo=     1
 Linear equations converged to 1.000D-08 1.000D-07 after    33 iterations.
 FullF1:  Do perturbations      1 to      21.
 SCF Polarizability for W=    0.000000:
                1             2             3 
      1  0.710063D+03
      2  0.675702D+01  0.673298D+03
      3 -0.999367D+01  0.143059D+02  0.557269D+03
 Isotropic polarizability for W=    0.000000      646.88 Bohr**3.
 SCF Polarizability for W=    0.069425:
                1             2             3 
      1  0.720772D+03
      2  0.698221D+01  0.682780D+03
      3 -0.101415D+02  0.146620D+02  0.563101D+03
 Isotropic polarizability for W=    0.069425      655.55 Bohr**3.
 SCF Polarizability for W=    0.077547:
                1             2             3 
      1  0.723511D+03
      2  0.704012D+01  0.685200D+03
      3 -0.101794D+02  0.147529D+02  0.564578D+03
 Isotropic polarizability for W=    0.077547      657.76 Bohr**3.
 SCF Polarizability for W=    0.093732:
                1             2             3 
      1  0.730013D+03
      2  0.717808D+01  0.690941D+03
      3 -0.102694D+02  0.149684D+02  0.568062D+03
 Isotropic polarizability for W=    0.093732      663.01 Bohr**3.
 SCF Polarizability for W=    0.138849:
                1             2             3 
      1  0.756616D+03
      2  0.774907D+01  0.714341D+03
      3 -0.106408D+02  0.158434D+02  0.581979D+03
 Isotropic polarizability for W=    0.138849      684.31 Bohr**3.
 SCF Polarizability for W=    0.155093:
                1             2             3 
      1  0.769937D+03
      2  0.803813D+01  0.726001D+03
      3 -0.108297D+02  0.162760D+02  0.588737D+03
 Isotropic polarizability for W=    0.155093      694.89 Bohr**3.
 SCF Polarizability for W=    0.187465:
                1             2             3 
      1  0.804621D+03
      2  0.879638D+01  0.756179D+03
      3 -0.113381D+02  0.173780D+02  0.605657D+03
 Isotropic polarizability for W=    0.187465      722.15 Bohr**3.
 SCF Static Hyperpolarizability:
 K=  1 block:
                1 
      1  0.487171D+01
 K=  2 block:
                1             2 
      1 -0.590208D+01
      2 -0.323710D+02 -0.624179D+02
 K=  3 block:
                1             2             3 
      1  0.710205D+02
      2  0.174650D+02  0.202294D+02
      3 -0.573756D+01  0.259598D+02 -0.359981D+02
 SCF Beta(-W,W;0) for W=    0.069425:
 K=  1 block:
                1             2             3 
      1  0.389663D+01
      2 -0.629985D+01 -0.348754D+02
      3  0.758004D+02  0.187792D+02 -0.653874D+01
 K=  2 block:
                1             2             3 
      1 -0.539898D+01
      2 -0.354886D+02 -0.663778D+02
      3  0.177916D+02  0.222362D+02  0.270888D+02
 K=  3 block:
                1             2             3 
      1  0.757228D+02
      2  0.184733D+02  0.219135D+02
      3 -0.657255D+01  0.265792D+02 -0.369643D+02
 SCF Beta(W,W;-2W) for W=    0.069425:
 K=  1 block:
                1             2             3 
      1  0.377665D+00
      2 -0.493167D+01 -0.443251D+02
      3  0.871422D+02  0.187854D+02 -0.885019D+01
 K=  2 block:
                1             2             3 
      1 -0.858480D+01
      2 -0.421089D+02 -0.760928D+02
      3  0.226224D+02  0.264707D+02  0.271128D+02
 K=  3 block:
                1             2             3 
      1  0.875401D+02
      2  0.199422D+02  0.275345D+02
      3 -0.866585D+01  0.291098D+02 -0.388989D+02
 SCF Beta(-W,W;0) for W=    0.077547:
 K=  1 block:
                1             2             3 
      1  0.359060D+01
      2 -0.640858D+01 -0.355601D+02
      3  0.770755D+02  0.191336D+02 -0.675762D+01
 K=  2 block:
                1             2             3 
      1 -0.524916D+01
      2 -0.363427D+02 -0.674404D+02
      3  0.178688D+02  0.227766D+02  0.273841D+02
 K=  3 block:
                1             2             3 
      1  0.769754D+02
      2  0.187437D+02  0.223646D+02
      3 -0.680295D+01  0.267334D+02 -0.372054D+02
 SCF Beta(W,W;-2W) for W=    0.077547:
 K=  1 block:
                1             2             3 
      1 -0.175639D+01
      2 -0.446886D+01 -0.484636D+02
      3  0.922350D+02  0.190904D+02 -0.997185D+01
 K=  2 block:
                1             2             3 
      1 -0.959108D+01
      2 -0.454826D+02 -0.804797D+02
      3  0.243778D+02  0.285155D+02  0.272859D+02
 K=  3 block:
                1             2             3 
      1  0.928109D+02
      2  0.206617D+02  0.298895D+02
      3 -0.968215D+01  0.300318D+02 -0.395890D+02
 SCF Beta(-W,W;0) for W=    0.093732:
 K=  1 block:
                1             2             3 
      1  0.275944D+01
      2 -0.667881D+01 -0.372638D+02
      3  0.801926D+02  0.200068D+02 -0.730153D+01
 K=  2 block:
                1             2             3 
      1 -0.485571D+01
      2 -0.384710D+02 -0.700483D+02
      3  0.180404D+02  0.241059D+02  0.280959D+02
 K=  3 block:
                1             2             3 
      1  0.800359D+02
      2  0.194074D+02  0.234714D+02
      3 -0.738004D+01  0.270919D+02 -0.377663D+02
 SCF Beta(W,W;-2W) for W=    0.093732:
 K=  1 block:
                1             2             3 
      1 -0.978908D+01
      2 -0.275607D+01 -0.611043D+02
      3  0.106659D+03  0.197023D+02 -0.135429D+02
 K=  2 block:
                1             2             3 
      1 -0.128249D+02
      2 -0.558224D+02 -0.928792D+02
      3  0.296317D+02  0.345147D+02  0.273686D+02
 K=  3 block:
                1             2             3 
      1  0.107800D+03
      2  0.225304D+02  0.365827D+02
      3 -0.127884D+02  0.324825D+02 -0.409869D+02
 SCF Beta(-W,W;0) for W=    0.138849:
 K=  1 block:
                1             2             3 
      1 -0.257402D+01
      2 -0.798106D+01 -0.455833D+02
      3  0.944022D+02  0.240946D+02 -0.992957D+01
 K=  2 block:
                1             2             3 
      1 -0.259344D+01
      2 -0.489133D+02 -0.820770D+02
      3  0.185384D+02  0.302914D+02  0.311765D+02
 K=  3 block:
                1             2             3 
      1  0.940046D+02
      2  0.224823D+02  0.286226D+02
      3 -0.102677D+02  0.284328D+02 -0.398438D+02
 SCF Beta(-W,W;0) for W=    0.155093:
 K=  1 block:
                1             2             3 
      1 -0.679746D+01
      2 -0.876637D+01 -0.507477D+02
      3  0.102510D+03  0.264956D+02 -0.115287D+02
 K=  2 block:
                1             2             3 
      1 -0.978524D+00
      2 -0.554296D+02 -0.890006D+02
      3  0.186336D+02  0.338932D+02  0.328263D+02
 K=  3 block:
                1             2             3 
      1  0.102034D+03
      2  0.242745D+02  0.316680D+02
      3 -0.121113D+02  0.290148D+02 -0.407072D+02
 SCF Beta(-W,W;0) for W=    0.187465:
 K=  1 block:
                1             2             3 
      1 -0.254543D+02
      2 -0.112948D+02 -0.685830D+02
      3  0.127461D+03  0.341209D+02 -0.168304D+02
 K=  2 block:
                1             2             3 
      1  0.529123D+01
      2 -0.781164D+02 -0.110219D+03
      3  0.181979D+02  0.451667D+02  0.374958D+02
 K=  3 block:
                1             2             3 
      1  0.127351D+03
      2  0.299549D+02  0.417214D+02
      3 -0.187188D+02  0.301800D+02 -0.421138D+02
 End of Minotr F.D. properties on file   721 Mask=      31 NFrqRd=     4 NDeriv=     1 ND12= 1 LenFil=     186:
 Frequencies=    0.000000    0.069425    0.077547    0.093732
 Property number 1 -- Alpha(-w,w) frequency  1    0.000000:
                 1             2             3 
      1   0.710063D+03  0.675702D+01 -0.999367D+01
      2   0.675702D+01  0.673298D+03  0.143059D+02
      3  -0.999367D+01  0.143059D+02  0.557269D+03
 Property number 1 -- Alpha(-w,w) frequency  2    0.069425:
                 1             2             3 
      1   0.720772D+03  0.698221D+01 -0.101415D+02
      2   0.698221D+01  0.682780D+03  0.146620D+02
      3  -0.101415D+02  0.146620D+02  0.563101D+03
 Property number 1 -- Alpha(-w,w) frequency  3    0.077547:
                 1             2             3 
      1   0.723511D+03  0.704012D+01 -0.101794D+02
      2   0.704012D+01  0.685200D+03  0.147529D+02
      3  -0.101794D+02  0.147529D+02  0.564578D+03
 Property number 1 -- Alpha(-w,w) frequency  4    0.093732:
                 1             2             3 
      1   0.730013D+03  0.717808D+01 -0.102694D+02
      2   0.717808D+01  0.690941D+03  0.149684D+02
      3  -0.102694D+02  0.149684D+02  0.568062D+03
 Property number 5 -- Beta(-w,w,0) frequency  1    0.000000:
                 1 
      1   0.487171D+01
      2  -0.590208D+01
      3  -0.323710D+02
      4   0.710205D+02
      5   0.174650D+02
      6  -0.573756D+01
      7  -0.590208D+01
      8  -0.323710D+02
      9  -0.624179D+02
     10   0.174650D+02
     11   0.202294D+02
     12   0.259598D+02
     13   0.710205D+02
     14   0.174650D+02
     15   0.202294D+02
     16  -0.573756D+01
     17   0.259598D+02
     18  -0.359981D+02
 Property number 5 -- Beta(-w,w,0) frequency  2    0.069425:
                 1 
      1   0.389663D+01
      2  -0.629985D+01
      3  -0.348754D+02
      4   0.758004D+02
      5   0.187792D+02
      6  -0.653874D+01
      7  -0.539898D+01
      8  -0.354886D+02
      9  -0.663778D+02
     10   0.177916D+02
     11   0.222362D+02
     12   0.270888D+02
     13   0.757228D+02
     14   0.184733D+02
     15   0.219135D+02
     16  -0.657255D+01
     17   0.265792D+02
     18  -0.369643D+02
 Property number 5 -- Beta(-w,w,0) frequency  3    0.077547:
                 1 
      1   0.359060D+01
      2  -0.640858D+01
      3  -0.355601D+02
      4   0.770755D+02
      5   0.191336D+02
      6  -0.675762D+01
      7  -0.524916D+01
      8  -0.363427D+02
      9  -0.674404D+02
     10   0.178688D+02
     11   0.227766D+02
     12   0.273841D+02
     13   0.769754D+02
     14   0.187437D+02
     15   0.223646D+02
     16  -0.680295D+01
     17   0.267334D+02
     18  -0.372054D+02
 Property number 5 -- Beta(-w,w,0) frequency  4    0.093732:
                 1 
      1   0.275944D+01
      2  -0.667881D+01
      3  -0.372638D+02
      4   0.801926D+02
      5   0.200068D+02
      6  -0.730153D+01
      7  -0.485571D+01
      8  -0.384710D+02
      9  -0.700483D+02
     10   0.180404D+02
     11   0.241059D+02
     12   0.280959D+02
     13   0.800359D+02
     14   0.194074D+02
     15   0.234714D+02
     16  -0.738004D+01
     17   0.270919D+02
     18  -0.377663D+02
 Property number 6 -- Beta(w,w,-2w) frequency  1    0.000000:
                 1 
      1   0.487171D+01
      2  -0.590208D+01
      3  -0.323710D+02
      4   0.710205D+02
      5   0.174650D+02
      6  -0.573756D+01
      7  -0.590208D+01
      8  -0.323710D+02
      9  -0.624179D+02
     10   0.174650D+02
     11   0.202294D+02
     12   0.259598D+02
     13   0.710205D+02
     14   0.174650D+02
     15   0.202294D+02
     16  -0.573756D+01
     17   0.259598D+02
     18  -0.359981D+02
 Property number 6 -- Beta(w,w,-2w) frequency  2    0.069425:
                 1 
      1   0.377665D+00
      2  -0.493167D+01
      3  -0.443251D+02
      4   0.871422D+02
      5   0.187854D+02
      6  -0.885019D+01
      7  -0.858480D+01
      8  -0.421089D+02
      9  -0.760928D+02
     10   0.226224D+02
     11   0.264707D+02
     12   0.271128D+02
     13   0.875401D+02
     14   0.199422D+02
     15   0.275345D+02
     16  -0.866585D+01
     17   0.291098D+02
     18  -0.388989D+02
 Property number 6 -- Beta(w,w,-2w) frequency  3    0.077547:
                 1 
      1  -0.175639D+01
      2  -0.446886D+01
      3  -0.484636D+02
      4   0.922350D+02
      5   0.190904D+02
      6  -0.997185D+01
      7  -0.959108D+01
      8  -0.454826D+02
      9  -0.804797D+02
     10   0.243778D+02
     11   0.285155D+02
     12   0.272859D+02
     13   0.928109D+02
     14   0.206617D+02
     15   0.298895D+02
     16  -0.968215D+01
     17   0.300318D+02
     18  -0.395890D+02
 Property number 6 -- Beta(w,w,-2w) frequency  4    0.093732:
                 1 
      1  -0.978908D+01
      2  -0.275607D+01
      3  -0.611043D+02
      4   0.106659D+03
      5   0.197023D+02
      6  -0.135429D+02
      7  -0.128249D+02
      8  -0.558224D+02
      9  -0.928792D+02
     10   0.296317D+02
     11   0.345147D+02
     12   0.273686D+02
     13   0.107800D+03
     14   0.225304D+02
     15   0.365827D+02
     16  -0.127884D+02
     17   0.324825D+02
     18  -0.409869D+02
 End of Minotr F.D. properties file   722 does not exist.
 End of Minotr F.D. properties file   788 does not exist.
 Leave Link 1002 at Wed Oct 11 01:23:23 2023, MaxMem= 12482248704 cpu:         1161882.5 elap:           36420.4
 (Enter /opt/ohpc/pub/apps/gaussian/16b01-sse4/g16/l601.exe)
 Copying SCF densities to generalized density rwf, IOpCl= 0 IROHF=0.
 Hyperfine terms turned off by default for NAtoms > 100.

 **********************************************************************

            Population analysis using the SCF Density.

 **********************************************************************

 Alpha  occ. eigenvalues --  -24.51785 -24.51779 -24.51767 -24.51759 -24.51726
 Alpha  occ. eigenvalues --  -24.51694 -24.51553 -24.51372 -24.51370 -24.51369
 Alpha  occ. eigenvalues --  -24.51336 -24.51288 -24.51271 -24.51239 -24.51221
 Alpha  occ. eigenvalues --  -24.51212 -24.51211 -24.51208 -24.51206 -24.51203
 Alpha  occ. eigenvalues --  -24.51182 -24.51172 -24.51172 -24.51171 -24.51130
 Alpha  occ. eigenvalues --  -24.51121 -24.51118 -24.51117 -24.51115 -24.51106
 Alpha  occ. eigenvalues --  -24.51106 -24.51103 -24.51101 -24.51099 -24.51086
 Alpha  occ. eigenvalues --  -24.51071 -24.51064 -24.51051 -24.50994 -24.50968
 Alpha  occ. eigenvalues --  -24.50968 -24.50947 -24.50945 -24.50938 -24.50931
 Alpha  occ. eigenvalues --  -24.50930 -24.50929 -24.50924 -24.50889 -24.50849
 Alpha  occ. eigenvalues --  -24.50847 -24.50831 -24.50822 -24.50811 -24.50811
 Alpha  occ. eigenvalues --  -24.50804 -24.50790 -24.50697 -24.50688 -24.50688
 Alpha  occ. eigenvalues --  -24.50659 -24.50656 -24.50655 -24.50649 -24.50620
 Alpha  occ. eigenvalues --  -24.50586 -24.50554 -24.50481 -24.50460 -24.50452
 Alpha  occ. eigenvalues --  -24.50425 -24.50319 -24.50291 -24.50177 -24.49860
 Alpha  occ. eigenvalues --  -24.49786 -24.49511 -24.49353 -24.48810 -24.48712
 Alpha  occ. eigenvalues --  -19.04538 -19.04527 -19.04510 -19.04484 -19.04397
 Alpha  occ. eigenvalues --  -19.04179 -19.04159 -19.03483 -10.32008 -10.31999
 Alpha  occ. eigenvalues --  -10.31986 -10.31961 -10.31938 -10.31884 -10.31695
 Alpha  occ. eigenvalues --  -10.31186 -10.29390 -10.29382 -10.29362 -10.29299
 Alpha  occ. eigenvalues --  -10.29291 -10.29158 -10.29067 -10.29047 -10.29042
 Alpha  occ. eigenvalues --  -10.28996 -10.28883 -10.28708 -10.28682 -10.28575
 Alpha  occ. eigenvalues --  -10.28575 -10.28572 -10.28537 -10.28526 -10.28465
 Alpha  occ. eigenvalues --  -10.28300 -10.28274 -10.27776 -10.27585 -10.27573
 Alpha  occ. eigenvalues --  -10.27562 -10.27532 -10.27443 -10.27215 -10.27005
 Alpha  occ. eigenvalues --  -10.25857 -10.25609 -10.24962 -10.23584 -10.23584
 Alpha  occ. eigenvalues --  -10.23548 -10.23532 -10.23475 -10.23300 -10.22548
 Alpha  occ. eigenvalues --  -10.22035  -1.37541  -1.37442  -1.37337  -1.37237
 Alpha  occ. eigenvalues --   -1.37164  -1.37023  -1.37019  -1.36797  -1.36723
 Alpha  occ. eigenvalues --   -1.36639  -1.36550  -1.36514  -1.36465  -1.36406
 Alpha  occ. eigenvalues --   -1.36014  -1.34745  -1.34731  -1.34724  -1.34699
 Alpha  occ. eigenvalues --   -1.34696  -1.34629  -1.34471  -1.34441  -1.34312
 Alpha  occ. eigenvalues --   -1.34177  -1.34052  -1.33966  -1.33933  -1.33875
 Alpha  occ. eigenvalues --   -1.33625  -1.33146  -1.32595  -1.32582  -1.32552
 Alpha  occ. eigenvalues --   -1.32520  -1.32507  -1.32423  -1.32216  -1.31958
 Alpha  occ. eigenvalues --   -1.31143  -1.30757  -1.30683  -1.30609  -1.30546
 Alpha  occ. eigenvalues --   -1.30498  -1.30329  -1.30123  -1.29867  -1.29834
 Alpha  occ. eigenvalues --   -1.29804  -1.29801  -1.29735  -1.29706  -1.29578
 Alpha  occ. eigenvalues --   -1.29573  -1.29523  -1.29501  -1.29473  -1.29420
 Alpha  occ. eigenvalues --   -1.29333  -1.29307  -1.29039  -1.28923  -1.28901
 Alpha  occ. eigenvalues --   -1.28894  -1.28872  -1.28838  -1.28709  -1.28706
 Alpha  occ. eigenvalues --   -1.28513  -1.28496  -1.28495  -1.28483  -1.28461
 Alpha  occ. eigenvalues --   -1.28389  -1.28333  -1.28215  -1.27717  -1.27326
 Alpha  occ. eigenvalues --   -1.26561  -1.20106  -1.20095  -1.20068  -1.20055
 Alpha  occ. eigenvalues --   -1.19969  -1.19744  -1.19600  -1.18835  -0.94043
 Alpha  occ. eigenvalues --   -0.93974  -0.93897  -0.93813  -0.93741  -0.93626
 Alpha  occ. eigenvalues --   -0.93608  -0.93205  -0.91228  -0.91137  -0.91060
 Alpha  occ. eigenvalues --   -0.91014  -0.90928  -0.90906  -0.90687  -0.89186
 Alpha  occ. eigenvalues --   -0.86793  -0.86671  -0.86512  -0.86315  -0.86088
 Alpha  occ. eigenvalues --   -0.85874  -0.85617  -0.83472  -0.81990  -0.81670
 Alpha  occ. eigenvalues --   -0.81283  -0.80768  -0.80231  -0.79748  -0.79391
 Alpha  occ. eigenvalues --   -0.78886  -0.78050  -0.77851  -0.77709  -0.77655
 Alpha  occ. eigenvalues --   -0.77629  -0.77510  -0.77027  -0.76990  -0.75942
 Alpha  occ. eigenvalues --   -0.75923  -0.75817  -0.75670  -0.75443  -0.75259
 Alpha  occ. eigenvalues --   -0.75187  -0.74888  -0.73974  -0.73587  -0.73225
 Alpha  occ. eigenvalues --   -0.72943  -0.72792  -0.72765  -0.72498  -0.71869
 Alpha  occ. eigenvalues --   -0.71817  -0.71789  -0.71746  -0.71640  -0.71623
 Alpha  occ. eigenvalues --   -0.71585  -0.71339  -0.70947  -0.70891  -0.70882
 Alpha  occ. eigenvalues --   -0.70764  -0.70669  -0.70508  -0.70354  -0.70246
 Alpha  occ. eigenvalues --   -0.70091  -0.70064  -0.69991  -0.69948  -0.69901
 Alpha  occ. eigenvalues --   -0.69847  -0.69594  -0.69541  -0.69449  -0.69379
 Alpha  occ. eigenvalues --   -0.69334  -0.69300  -0.69234  -0.69124  -0.69034
 Alpha  occ. eigenvalues --   -0.68950  -0.68905  -0.68731  -0.68565  -0.68385
 Alpha  occ. eigenvalues --   -0.68248  -0.68147  -0.67937  -0.67690  -0.67215
 Alpha  occ. eigenvalues --   -0.67110  -0.67101  -0.67069  -0.67053  -0.67015
 Alpha  occ. eigenvalues --   -0.66957  -0.66908  -0.66844  -0.66801  -0.66737
 Alpha  occ. eigenvalues --   -0.66706  -0.66611  -0.66587  -0.66364  -0.66288
 Alpha  occ. eigenvalues --   -0.65888  -0.65693  -0.65620  -0.65615  -0.65561
 Alpha  occ. eigenvalues --   -0.65529  -0.65375  -0.65167  -0.65076  -0.65036
 Alpha  occ. eigenvalues --   -0.64966  -0.64916  -0.64860  -0.64827  -0.64767
 Alpha  occ. eigenvalues --   -0.64636  -0.64608  -0.64549  -0.64348  -0.64246
 Alpha  occ. eigenvalues --   -0.64227  -0.64028  -0.63912  -0.63861  -0.63267
 Alpha  occ. eigenvalues --   -0.62414  -0.59738  -0.59593  -0.59427  -0.59274
 Alpha  occ. eigenvalues --   -0.59265  -0.59101  -0.58562  -0.58526  -0.58222
 Alpha  occ. eigenvalues --   -0.58204  -0.58025  -0.57928  -0.57836  -0.57730
 Alpha  occ. eigenvalues --   -0.57624  -0.57592  -0.57462  -0.57280  -0.57050
 Alpha  occ. eigenvalues --   -0.56806  -0.56696  -0.56669  -0.56590  -0.56518
 Alpha  occ. eigenvalues --   -0.56489  -0.56471  -0.56462  -0.56446  -0.56393
 Alpha  occ. eigenvalues --   -0.56386  -0.56279  -0.56278  -0.56254  -0.56217
 Alpha  occ. eigenvalues --   -0.56192  -0.56158  -0.56129  -0.56063  -0.55971
 Alpha  occ. eigenvalues --   -0.55872  -0.55763  -0.55706  -0.55603  -0.55545
 Alpha  occ. eigenvalues --   -0.55522  -0.55501  -0.55469  -0.55414  -0.55357
 Alpha  occ. eigenvalues --   -0.55330  -0.55293  -0.55179  -0.55061  -0.54936
 Alpha  occ. eigenvalues --   -0.54921  -0.54826  -0.54775  -0.54752  -0.54719
 Alpha  occ. eigenvalues --   -0.54621  -0.54554  -0.54493  -0.54438  -0.54320
 Alpha  occ. eigenvalues --   -0.54286  -0.54185  -0.54086  -0.53979  -0.53930
 Alpha  occ. eigenvalues --   -0.53872  -0.53818  -0.53785  -0.53699  -0.53587
 Alpha  occ. eigenvalues --   -0.53563  -0.53410  -0.53314  -0.53293  -0.53290
 Alpha  occ. eigenvalues --   -0.53251  -0.53243  -0.53174  -0.53151  -0.53105
 Alpha  occ. eigenvalues --   -0.53007  -0.52804  -0.52787  -0.52760  -0.52716
 Alpha  occ. eigenvalues --   -0.52625  -0.52595  -0.52544  -0.52504  -0.52432
 Alpha  occ. eigenvalues --   -0.52393  -0.52360  -0.52304  -0.52284  -0.52247
 Alpha  occ. eigenvalues --   -0.52205  -0.52157  -0.52010  -0.51944  -0.51889
 Alpha  occ. eigenvalues --   -0.51798  -0.51770  -0.51731  -0.51613  -0.51592
 Alpha  occ. eigenvalues --   -0.51306  -0.51293  -0.51280  -0.51249  -0.51197
 Alpha  occ. eigenvalues --   -0.51117  -0.51094  -0.51034  -0.51014  -0.50994
 Alpha  occ. eigenvalues --   -0.50971  -0.50878  -0.50869  -0.50765  -0.50694
 Alpha  occ. eigenvalues --   -0.50655  -0.50628  -0.50613  -0.50592  -0.50527
 Alpha  occ. eigenvalues --   -0.50456  -0.50437  -0.50367  -0.50229  -0.50034
 Alpha  occ. eigenvalues --   -0.50033  -0.50006  -0.49978  -0.49953  -0.49920
 Alpha  occ. eigenvalues --   -0.49861  -0.49788  -0.49633  -0.49484  -0.48848
 Alpha  occ. eigenvalues --   -0.48678  -0.48578  -0.48471  -0.48367  -0.48292
 Alpha  occ. eigenvalues --   -0.48217  -0.47811  -0.47190  -0.47077  -0.46942
 Alpha  occ. eigenvalues --   -0.46888  -0.46831  -0.46665  -0.46611  -0.46084
 Alpha  occ. eigenvalues --   -0.45612  -0.45596  -0.45472  -0.45425  -0.45303
 Alpha  occ. eigenvalues --   -0.45220  -0.45187  -0.44728  -0.44493  -0.43736
 Alpha  occ. eigenvalues --   -0.43538  -0.43381  -0.43300  -0.43289  -0.43251
 Alpha  occ. eigenvalues --   -0.43078  -0.42553
[...]
   yyzy       0.121899D+04      0.613970D+00      0.760088D+00
   zxzy       0.556351D+04      0.280217D+01      0.346906D+01
   zyzy       0.232340D+05      0.117022D+02      0.144873D+02
   zzzy       0.689423D+04      0.347242D+01      0.429882D+01
   xxzz       0.221764D+05      0.111696D+02      0.138278D+02
   yxzz       0.563338D+04      0.283736D+01      0.351263D+01
   yyzz       0.232479D+05      0.117092D+02      0.144959D+02
   zxzz       0.119803D+04      0.603409D+00      0.747015D+00
   zyzz       0.683909D+04      0.344464D+01      0.426443D+01
   zzzz       0.861239D+05      0.433780D+02      0.537015D+02
 Gamma(-w;w,0,0) w=  486.1nm:
                  (au)         (10**-36 esu)      (10**-61 SI)
   ||         0.711653D+05      0.358438D+02      0.443743D+02
   _|_        0.236445D+05      0.119090D+02      0.147432D+02
   xxxx       0.557624D+05      0.280858D+02      0.347700D+02
   yxxx       0.138618D+05      0.698178D+01      0.864337D+01
   yyxx       0.236761D+05      0.119249D+02      0.147629D+02
   zxxx       0.260045D+04      0.130977D+01      0.162148D+01
   zyxx       0.177926D+04      0.896157D+00      0.110943D+01
   zzxx       0.233579D+05      0.117647D+02      0.145646D+02
   xxyx       0.137373D+05      0.691908D+01      0.856576D+01
   yxyx       0.236178D+05      0.118956D+02      0.147266D+02
   yyyx       0.170102D+05      0.856753D+01      0.106065D+02
   zxyx       0.176302D+04      0.887979D+00      0.109931D+01
   zyyx       0.196861D+04      0.991530D+00      0.122750D+01
   zzyx       0.588313D+04      0.296315D+01      0.366836D+01
   xxyy       0.238182D+05      0.119965D+02      0.148515D+02
   yxyy       0.172843D+05      0.870559D+01      0.107774D+02
   yyyy       0.670149D+05      0.337534D+02      0.417864D+02
   zxyy       0.197504D+04      0.994766D+00      0.123151D+01
   zyyy       0.136110D+04      0.685543D+00      0.848696D+00
   zzyy       0.246569D+05      0.124189D+02      0.153745D+02
   xxzx       0.255348D+04      0.128611D+01      0.159219D+01
   yxzx       0.172864D+04      0.870664D+00      0.107787D+01
   yyzx       0.192168D+04      0.967889D+00      0.119824D+01
   zxzx       0.231844D+05      0.116773D+02      0.144563D+02
   zyzx       0.589099D+04      0.296711D+01      0.367326D+01
   zzzx       0.131123D+04      0.660427D+00      0.817602D+00
   xxzy       0.172655D+04      0.869612D+00      0.107657D+01
   yxzy       0.190261D+04      0.958289D+00      0.118635D+01
   yyzy       0.125822D+04      0.633728D+00      0.784549D+00
   zxzy       0.589138D+04      0.296731D+01      0.367350D+01
   zyzy       0.243289D+05      0.122537D+02      0.151700D+02
   zzzy       0.729347D+04      0.367350D+01      0.454775D+01
   xxzz       0.232694D+05      0.117201D+02      0.145094D+02
   yxzz       0.600185D+04      0.302295D+01      0.374238D+01
   yyzz       0.243538D+05      0.122663D+02      0.151855D+02
   zxzz       0.124495D+04      0.627044D+00      0.776275D+00
   zyzz       0.720520D+04      0.362904D+01      0.449271D+01
   zzzz       0.904963D+05      0.455802D+02      0.564279D+02
 Gamma(-2w;w,w,0) w=  656.3nm:
                  (au)         (10**-36 esu)      (10**-61 SI)
   ||         0.788134D+05      0.396959D+02      0.491432D+02
   _|_        0.261007D+05      0.131461D+02      0.138080D+02
   xxxx       0.614916D+05      0.309714D+02      0.383423D+02
   yxxx       0.158489D+05      0.798262D+01      0.988241D+01
   zxxx       0.294900D+04      0.148532D+01      0.183881D+01
   xyxx       0.156016D+05      0.785808D+01      0.972822D+01
   yyxx       0.262110D+05      0.132017D+02      0.163435D+02
   zyxx       0.204593D+04      0.103047D+01      0.127571D+01
   xyyx       0.261273D+05      0.131595D+02      0.162914D+02
   yyyx       0.191422D+05      0.964136D+01      0.119359D+02
   zyyx       0.224536D+04      0.113092D+01      0.140007D+01
   xzxx       0.285559D+04      0.143827D+01      0.178057D+01
   yzxx       0.197413D+04      0.994308D+00      0.123094D+01
   zzxx       0.258676D+05      0.130287D+02      0.161294D+02
   xzyx       0.193922D+04      0.976725D+00      0.120918D+01
   yzyx       0.214512D+04      0.108043D+01      0.133756D+01
   zzyx       0.666062D+04      0.335475D+01      0.415315D+01
   xzzx       0.255524D+05      0.128700D+02      0.159329D+02
   yzzx       0.668358D+04      0.336632D+01      0.416746D+01
   zzzx       0.149091D+04      0.750924D+00      0.929636D+00
   xxxy       0.155265D+05      0.782025D+01      0.968139D+01
   yxxy       0.260343D+05      0.131127D+02      0.162334D+02
   zxxy       0.202495D+04      0.101991D+01      0.126264D+01
   xyxy       0.264004D+05      0.132971D+02      0.164616D+02
   yyxy       0.193203D+05      0.973104D+01      0.120469D+02
   zyxy       0.226022D+04      0.113840D+01      0.140933D+01
   xyyy       0.198571D+05      0.100014D+02      0.123817D+02
   yyyy       0.739397D+05      0.372412D+02      0.461042D+02
   zyyy       0.161624D+04      0.814051D+00      0.100779D+01
   xzxy       0.194746D+04      0.980874D+00      0.121431D+01
   yzxy       0.211690D+04      0.106622D+01      0.131997D+01
   zzxy       0.666146D+04      0.335517D+01      0.415367D+01
   xzyy       0.212924D+04      0.107243D+01      0.132766D+01
   yzyy       0.140732D+04      0.708822D+00      0.877515D+00
   zzyy       0.272898D+05      0.137450D+02      0.170162D+02
   xzzy       0.667946D+04      0.336424D+01      0.416490D+01
   yzzy       0.266776D+05      0.134367D+02      0.166345D+02
   zzzy       0.823418D+04      0.414730D+01      0.513432D+01
   xxxz       0.282468D+04      0.142271D+01      0.176130D+01
   yxxz       0.193130D+04      0.972736D+00      0.120424D+01
   zxxz       0.256095D+05      0.128987D+02      0.159685D+02
   xyxz       0.192540D+04      0.969765D+00      0.120056D+01
   yyxz       0.210043D+04      0.105792D+01      0.130970D+01
   zyxz       0.660356D+04      0.332601D+01      0.411757D+01
   xyyz       0.206605D+04      0.104061D+01      0.128826D+01
   yyyz       0.133871D+04      0.674268D+00      0.834737D+00
   zyyz       0.268792D+05      0.135382D+02      0.167602D+02
   xzxz       0.257561D+05      0.129726D+02      0.160599D+02
   yzxz       0.681326D+04      0.343163D+01      0.424833D+01
   zzxz       0.144440D+04      0.727501D+00      0.900639D+00
   xzyz       0.680906D+04      0.342952D+01      0.424571D+01
   yzyz       0.268893D+05      0.135433D+02      0.167665D+02
   zzyz       0.817530D+04      0.411765D+01      0.509761D+01
   xzzz       0.130280D+04      0.656183D+00      0.812348D+00
   yzzz       0.799727D+04      0.402798D+01      0.498660D+01
   zzzz       0.100733D+06      0.507361D+02      0.628108D+02
 Gamma(-2w;w,w,0) w=  587.6nm:
                  (au)         (10**-36 esu)      (10**-61 SI)
   ||         0.844001D+05      0.425097D+02      0.526266D+02
   _|_        0.278966D+05      0.140506D+02      0.140790D+02
   xxxx       0.656588D+05      0.330704D+02      0.409408D+02
   yxxx       0.173101D+05      0.871858D+01      0.107935D+02
   zxxx       0.320064D+04      0.161207D+01      0.199572D+01
   xyxx       0.169657D+05      0.854511D+01      0.105788D+02
   yyxx       0.280791D+05      0.141426D+02      0.175084D+02
   zyxx       0.224289D+04      0.112967D+01      0.139853D+01
   xyyx       0.279690D+05      0.140871D+02      0.174397D+02
   yyyx       0.207231D+05      0.104376D+02      0.129216D+02
   zyyx       0.244008D+04      0.122899D+01      0.152148D+01
   xzxx       0.306846D+04      0.154549D+01      0.191330D+01
   yzxx       0.213966D+04      0.107768D+01      0.133416D+01
   zzxx       0.277530D+05      0.139783D+02      0.173050D+02
   xzyx       0.208871D+04      0.105202D+01      0.130239D+01
   yzyx       0.229480D+04      0.115582D+01      0.143089D+01
   zzyx       0.724243D+04      0.364779D+01      0.451593D+01
   xzzx       0.273144D+05      0.137574D+02      0.170316D+02
   yzzx       0.727370D+04      0.366354D+01      0.453543D+01
   zzzx       0.163199D+04      0.821984D+00      0.101761D+01
   xxxy       0.168634D+05      0.849358D+01      0.105150D+02
   yxxy       0.278371D+05      0.140207D+02      0.173575D+02
   zxxy       0.221254D+04      0.111439D+01      0.137960D+01
   xyxy       0.283489D+05      0.142785D+02      0.176766D+02
   yyxy       0.209725D+05      0.105632D+02      0.130771D+02
   zyxy       0.245824D+04      0.123814D+01      0.153280D+01
   xyyy       0.217231D+05      0.109413D+02      0.135452D+02
   yyyy       0.789644D+05      0.397720D+02      0.492373D+02
   zyyy       0.178418D+04      0.898635D+00      0.111250D+01
   xzxy       0.209977D+04      0.105759D+01      0.130928D+01
   yzxy       0.225484D+04      0.113569D+01      0.140598D+01
   zzxy       0.724350D+04      0.364833D+01      0.451660D+01
   xzyy       0.227148D+04      0.114408D+01      0.141635D+01
   yzyy       0.148575D+04      0.748326D+00      0.926420D+00
   zzyy       0.293068D+05      0.147610D+02      0.182739D+02
   xzzy       0.726420D+04      0.365876D+01      0.452950D+01
   yzzy       0.284508D+05      0.143298D+02      0.177401D+02
   zzzy       0.892978D+04      0.449766D+01      0.556806D+01
   xxxz       0.302466D+04      0.152343D+01      0.188599D+01
   yxxz       0.207857D+04      0.104691D+01      0.129607D+01
   zxxz       0.273922D+05      0.137966D+02      0.170801D+02
   xyxz       0.206877D+04      0.104198D+01      0.128996D+01
   yyxz       0.223033D+04      0.112335D+01      0.139069D+01
   zyxz       0.716175D+04      0.360715D+01      0.446562D+01
   xyyz       0.218219D+04      0.109910D+01      0.136068D+01
   yyyz       0.138766D+04      0.698924D+00      0.865261D+00
   zyyz       0.287354D+05      0.144731D+02      0.179176D+02
   xzxz       0.276009D+05      0.139017D+02      0.172102D+02
   yzxz       0.745225D+04      0.375347D+01      0.464676D+01
   zzxz       0.156358D+04      0.787528D+00      0.974952D+00
   xzyz       0.744319D+04      0.374891D+01      0.464111D+01
   yzyz       0.287412D+05      0.144760D+02      0.179212D+02
   zzyz       0.884630D+04      0.445561D+01      0.551601D+01
   xzzz       0.135417D+04      0.682053D+00      0.844375D+00
   yzzz       0.859134D+04      0.432720D+01      0.535703D+01
   zzzz       0.108258D+06      0.545260D+02      0.675027D+02
 Gamma(-2w;w,w,0) w=  486.1nm:
                  (au)         (10**-36 esu)      (10**-61 SI)
   ||         0.100466D+06      0.506018D+02      0.626446D+02
   _|_        0.330365D+05      0.166395D+02      0.147432D+02
   xxxx       0.775734D+05      0.390713D+02      0.483699D+02
   yxxx       0.216986D+05      0.109289D+02      0.135299D+02
   zxxx       0.397126D+04      0.200020D+01      0.247623D+01
   xyxx       0.210329D+05      0.105936D+02      0.131148D+02
   yyxx       0.334454D+05      0.168454D+02      0.208545D+02
   zyxx       0.284260D+04      0.143173D+01      0.177247D+01
   xyyx       0.332695D+05      0.167568D+02      0.207448D+02
   yyyx       0.253698D+05      0.127780D+02      0.158190D+02
   zyyx       0.302173D+04      0.152195D+01      0.188416D+01
   xzxx       0.370328D+04      0.186523D+01      0.230914D+01
   yzxx       0.262648D+04      0.132288D+01      0.163771D+01
   zzxx       0.332076D+05      0.167257D+02      0.207062D+02
   xzyx       0.251475D+04      0.126660D+01      0.156804D+01
   yzyx       0.271030D+04      0.136510D+01      0.168997D+01
   zzyx       0.898361D+04      0.452477D+01      0.560162D+01
   xzzx       0.323656D+05      0.163016D+02      0.201812D+02
   yzzx       0.903938D+04      0.455286D+01      0.563640D+01
   zzzx       0.209165D+04      0.105350D+01      0.130422D+01
   xxxy       0.208471D+05      0.105001D+02      0.129990D+02
   yxxy       0.330028D+05      0.166225D+02      0.205785D+02
   zxxy       0.277715D+04      0.139876D+01      0.173166D+01
   xyxy       0.339984D+05      0.171240D+02      0.211993D+02
   yyxy       0.258592D+05      0.130245D+02      0.161242D+02
   zyxy       0.304311D+04      0.153272D+01      0.189749D+01
   xyyy       0.273228D+05      0.137617D+02      0.170368D+02
   yyyy       0.932513D+05      0.469679D+02      0.581457D+02
   zyyy       0.229576D+04      0.115630D+01      0.143149D+01
   xzxy       0.253323D+04      0.127591D+01      0.157957D+01
   yzxy       0.262960D+04      0.132445D+01      0.163965D+01
   zzxy       0.898551D+04      0.452573D+01      0.560281D+01
   xzyy       0.266084D+04      0.134018D+01      0.165914D+01
   yzyy       0.168374D+04      0.848050D+00      0.104988D+01
   zzyy       0.351525D+05      0.177052D+02      0.219189D+02
   xzzy       0.900019D+04      0.453312D+01      0.561196D+01
   yzzy       0.334827D+05      0.168642D+02      0.208778D+02
   zzzy       0.109571D+05      0.551877D+01      0.683218D+01
   xxxz       0.361381D+04      0.182016D+01      0.225335D+01
   yxxz       0.249928D+04      0.125881D+01      0.155840D+01
   zxxz       0.325061D+05      0.163724D+02      0.202688D+02
   xyxz       0.247180D+04      0.124497D+01      0.154126D+01
   yyxz       0.257328D+04      0.129608D+01      0.160454D+01
   zyxz       0.882087D+04      0.444280D+01      0.550015D+01
   xyyz       0.248078D+04      0.124949D+01      0.154686D+01
   yyyz       0.148036D+04      0.745614D+00      0.923063D+00
   zyyz       0.340538D+05      0.171518D+02      0.212338D+02
   xzxz       0.329303D+05      0.165860D+02      0.205333D+02
   yzxz       0.937396D+04      0.472138D+01      0.584502D+01
   zzxz       0.193953D+04      0.976881D+00      0.120937D+01
   xzyz       0.933888D+04      0.470371D+01      0.582315D+01
   yzyz       0.340172D+05      0.171334D+02      0.212110D+02
   zzyz       0.107891D+05      0.543413D+01      0.672740D+01
   xzzz       0.147080D+04      0.740798D+00      0.917101D+00
   yzzz       0.102596D+05      0.516743D+01      0.639723D+01
   zzzz       0.130113D+06      0.655338D+02      0.811302D+02

 ----------------------------------------------------------------------

 Test job not archived.
 1\1\GINC-N10\SP\RLC-BLYP\6-31++G(d,p)\C48H2F80O8\CAROLFELISBERTO\13-Oc
 t-2023\0\\#p lc-blyp/6-31++G(d,p) density=current NoSymm IOP(3/107=022
 0000000) IOP(3/108=0220000000) polar=gamma volume\\Omega Optimization 
 by jgap value\\0,1\C,0,13.774187,-5.768302,0.630225\O,0,12.755117,-4.9
 99805,0.065432\C,0,11.586925,-5.046598,0.82171\C,0,11.588769,-6.452969
 ,1.510796\C,0,13.113443,-6.586684,1.780195\F,0,13.411847,-6.03284,2.97
 0188\F,0,14.752685,-4.974324,1.087601\F,0,13.541221,-7.869646,1.777152
 \F,0,14.288372,-6.566415,-0.31301\F,0,10.891367,-6.420487,2.684138\F,0
 ,11.627412,-4.137267,1.856023\C,0,11.066003,-7.664651,0.716813\H,0,11.
 230044,-8.576979,1.296811\C,0,10.390276,-4.653467,-0.068539\F,0,9.7396
 48,-7.533195,0.483349\F,0,11.728017,-7.758115,-0.466293\F,0,9.270167,-
 4.84402,0.665722\F,0,10.370561,-5.482013,-1.139249\C,0,11.953015,-0.24
 5456,-0.451826\O,0,10.704761,0.013169,-1.012587\C,0,9.690001,-0.608348
 ,-0.298614\C,0,10.307939,-1.968916,0.247955\C,0,11.751907,-1.420298,0.
 557133\F,0,11.765397,-0.952402,1.818212\F,0,12.426432,0.8495,0.1597\F,
 0,12.750917,-2.308153,0.410006\F,0,12.79759,-0.578538,-1.433662\F,0,9.
 663491,-2.313981,1.396911\F,0,9.395793,0.085212,0.856932\C,0,10.291945
 ,-3.205996,-0.699707\C,0,8.410274,-0.559116,-1.164478\F,0,9.092435,-3.
 266787,-1.3318\F,0,11.257065,-3.055595,-1.637223\F,0,7.477306,-1.33096
 6,-0.564437\F,0,8.697886,-1.048297,-2.392875\C,0,8.060332,4.108633,-0.
 580201\O,0,6.791512,3.941351,-1.128945\C,0,6.150489,2.836693,-0.587439
 \C,0,7.289345,1.76105,-0.306686\C,0,8.408629,2.77314,0.152651\F,0,8.30
 9711,2.93638,1.483891\F,0,8.070405,5.14759,0.267055\F,0,9.671011,2.421
 951,-0.152278\F,0,8.918911,4.365025,-1.572486\F,0,6.891899,0.96609,0.7
 25286\F,0,5.667102,3.110334,0.675518\C,0,7.721397,0.836069,-1.48261\C,
 0,4.912596,2.537204,-1.463802\F,0,6.617172,0.435501,-2.162713\F,0,8.50
 5117,1.541633,-2.331081\F,0,4.401762,1.351848,-1.063572\F,0,5.303218,2
 .461872,-2.757115\C,0,2.758542,6.450879,0.048306\O,0,1.63292,5.898904,
 -0.557684\C,0,1.51902,4.546218,-0.271789\C,0,3.006917,3.988418,-0.1832
 08\C,0,3.651329,5.252765,0.505571\F,0,3.567572,5.095683,1.838623\F,0,2
 .401292,7.218399,1.087791\F,0,4.930276,5.507633,0.174883\F,0,3.386337,
 7.21954,-0.847659\F,0,3.019154,2.913132,0.652545\F,0,1.038044,4.345251
 ,1.005608\C,0,3.706405,3.569491,-1.510025\C,0,0.457354,3.953405,-1.226
 326\F,0,2.818538,2.902095,-2.290157\F,0,4.093965,4.684129,-2.172916\F,
 0,0.487853,2.609059,-1.092031\F,0,0.771404,4.30076,-2.495803\C,0,-2.99
 2864,6.277905,0.995574\O,0,-3.835239,5.454302,0.253448\C,0,-3.383631,4
 .142556,0.251855\C,0,-1.794341,4.224977,0.268272\C,0,-1.670889,5.47586
 8,1.221364\F,0,-1.607811,5.035059,2.490345\F,0,-3.568535,6.6084,2.1603
 72\F,0,-0.621797,6.284965,0.986977\F,0,-2.776742,7.398404,0.29882\F,0,
 -1.306398,3.102112,0.864883\F,0,-3.672199,3.514371,1.445786\C,0,-1.061
 932,4.39762,-1.09507\C,0,-4.171878,3.377192,-0.835706\F,0,-1.650344,3.
 598525,-2.021054\F,0,-1.191898,5.681488,-1.503523\F,0,-3.6003,2.161107
 ,-0.979407\F,0,-4.093048,4.067677,-1.996774\C,0,-8.133321,3.626443,1.7
 10503\O,0,-8.618056,2.7007,0.790592\C,0,-7.682332,1.709316,0.532664\C,
 0,-6.259011,2.417057,0.613433\C,0,-6.591143,3.393893,1.806461\F,0,-6.2
 87695,2.770994,2.959105\F,0,-8.727296,3.459134,2.900708\F,0,-5.965301,
 4.584554,1.775101\F,0,-8.419805,4.854216,1.265001\F,0,-5.331683,1.4897
 13,0.981021\F,0,-7.629926,0.792996,1.562495\C,0,-5.732491,3.138201,-0.
 662418\C,0,-8.15922,0.927328,-0.712686\F,0,-6.003539,2.373497,-1.75047
 9\F,0,-6.385437,4.315579,-0.802173\F,0,-7.158856,0.098882,-1.085917\F,
 0,-8.425736,1.809573,-1.703607\C,0,-11.74517,-0.950205,1.708227\O,0,-1
 1.871873,-1.786469,0.603014\C,0,-10.63414,-2.244998,0.173767\C,0,-9.60
 8562,-1.05833,0.442352\C,0,-10.235501,-0.557432,1.800041\F,0,-9.644468
 ,-1.221736,2.809012\F,0,-12.154711,-1.57707,2.820369\F,0,-10.139488,0.
 764636,2.032042\F,0,-12.522096,0.121719,1.51833\F,0,-8.369723,-1.58943
 2,0.639418\F,0,-10.166461,-3.248906,0.995089\C,0,-9.483197,0.052879,-0
 .641045\C,0,-10.830903,-2.884643,-1.220403\F,0,-9.484976,-0.521646,-1.
 870678\F,0,-10.557698,0.871717,-0.557083\F,0,-9.609196,-3.154212,-1.73
 1056\F,0,-11.480276,-2.001737,-2.014763\C,0,-13.249245,-6.487769,0.588
 121\O,0,-13.072232,-7.038015,-0.676435\C,0,-11.764659,-6.855239,-1.126
 409\C,0,-11.295548,-5.468886,-0.538857\C,0,-12.007929,-5.577592,0.8594
 45\F,0,-11.167316,-6.185857,1.716791\F,0,-13.355694,-7.455109,1.513125
 \F,0,-12.415302,-4.41543,1.403457\F,0,-14.386878,-5.781547,0.591726\F,
 0,-9.938538,-5.479987,-0.405764\F,0,-10.930196,-7.779861,-0.530043\C,0
 ,-11.696895,-4.204836,-1.353889\C,0,-11.73633,-7.23079,-2.619731\H,0,-
 11.846116,-8.317853,-2.690873\F,0,-11.579891,-4.478918,-2.67839\F,0,-1
 2.995003,-3.910341,-1.10344\F,0,-10.543861,-6.867549,-3.150837\F,0,-12
 .745192,-6.64337,-3.300475\\Version=ES64L-G16RevB.01\HF=-10405.293396\
 RMSD=5.525e-09\Dipole=0.9237453,-0.8966574,-0.0751557\Polar=710.062727
 ,6.7570188,673.2980873,-9.9936661,14.3059316,557.2690625\HyperPolar=4.
 8717104,-5.90208,-32.3709692,-62.4179497,71.0205031,17.4649786,20.2294
 113,-5.7375642,25.9598314,-35.9980931\DQPolar=399.2026594,-104.8195269
 ,-294.3831325,-801.1467051,227.5861855,-66.4421157,-1284.9942498,361.9
 29428,923.0648217,17.0678069,-316.3146512,85.7924682,298.6429468,-83.4
 275649,-215.2153819,-392.2089946,-397.6165827,-221.8956834\Quadrupole=
 -2.8878048,19.3821302,-16.4943254,-10.6944508,8.2088775,0.4873247\PG=C
 01 [X(C48H2F80O8)]\\@


 YOU WILL NEVER "FIND" TIME FOR ANYTHING.
 IF YOU WANT TIME, YOU MUST MAKE IT.

                        -- CHARLES BIXTON
 Job cpu time:      97 days 17 hours 47 minutes 44.0 seconds.
 Elapsed time:       3 days  1 hours 35 minutes 46.2 seconds.
 File lengths (MBytes):  RWF=  82084 Int=      0 D2E=      0 Chk=    888 Scr=      1
 Normal termination of Gaussian 16 at Fri Oct 13 16:27:05 2023.
