 Entering Gaussian System, Link 0=g16
 Input=MK_Thermo.gjf
 Output=MK_Thermo.log
 Initial command:
 /mnt/Data/G16//g16/l1.exe "/mnt/Data/Gaussian_Scratch/Gau-88132.inp" -scrdir="/mnt/Data/Gaussian_Scratch/"
 Entering Link 1 = /mnt/Data/G16//g16/l1.exe PID=     88133.
  
 Copyright (c) 1988-2017, Gaussian, Inc.  All Rights Reserved.
  
 This is part of the Gaussian(R) 16 program.  It is based on
 the Gaussian(R) 09 system (copyright 2009, Gaussian, Inc.),
 the Gaussian(R) 03 system (copyright 2003, Gaussian, Inc.),
 the Gaussian(R) 98 system (copyright 1998, Gaussian, Inc.),
 the Gaussian(R) 94 system (copyright 1995, Gaussian, Inc.),
 the Gaussian 92(TM) system (copyright 1992, Gaussian, Inc.),
 the Gaussian 90(TM) system (copyright 1990, Gaussian, Inc.),
 the Gaussian 88(TM) system (copyright 1988, Gaussian, Inc.),
 the Gaussian 86(TM) system (copyright 1986, Carnegie Mellon
 University), and the Gaussian 82(TM) system (copyright 1983,
 Carnegie Mellon University). Gaussian is a federally registered
 trademark of Gaussian, Inc.
  
 This software contains proprietary and confidential information,
 including trade secrets, belonging to Gaussian, Inc.
  
 This software is provided under written license and may be
 used, copied, transmitted, or stored only in accord with that
 written license.
  
 The following legend is applicable only to US Government
 contracts under FAR:
  
                    RESTRICTED RIGHTS LEGEND
  
 Use, reproduction and disclosure by the US Government is
 subject to restrictions as set forth in subparagraphs (a)
 and (c) of the Commercial Computer Software - Restricted
 Rights clause in FAR 52.227-19.
  
 Gaussian, Inc.
 340 Quinnipiac St., Bldg. 40, Wallingford CT 06492
  
  
 ---------------------------------------------------------------
 Warning -- This program may not be used in any manner that
 competes with the business of Gaussian, Inc. or will provide
 assistance to any competitor of Gaussian, Inc.  The licensee
 of this program is prohibited from giving any competitor of
 Gaussian, Inc. access to this program.  By using this program,
 the user acknowledges that Gaussian, Inc. is engaged in the
 business of creating and licensing software in the field of
 computational chemistry and represents and warrants to the
 licensee that it is not a competitor of Gaussian, Inc. and that
 it will not use this program in any manner prohibited above.
 ---------------------------------------------------------------
  

 Cite this work as:
 Gaussian 16, Revision B.01,
 M. J. Frisch, G. W. Trucks, H. B. Schlegel, G. E. Scuseria, 
 M. A. Robb, J. R. Cheeseman, G. Scalmani, V. Barone, 
 G. A. Petersson, H. Nakatsuji, X. Li, M. Caricato, A. V. Marenich, 
 J. Bloino, B. G. Janesko, R. Gomperts, B. Mennucci, H. P. Hratchian, 
 J. V. Ortiz, A. F. Izmaylov, J. L. Sonnenberg, D. Williams-Young, 
 F. Ding, F. Lipparini, F. Egidi, J. Goings, B. Peng, A. Petrone, 
 T. Henderson, D. Ranasinghe, V. G. Zakrzewski, J. Gao, N. Rega, 
 G. Zheng, W. Liang, M. Hada, M. Ehara, K. Toyota, R. Fukuda, 
 J. Hasegawa, M. Ishida, T. Nakajima, Y. Honda, O. Kitao, H. Nakai, 
 T. Vreven, K. Throssell, J. A. Montgomery, Jr., J. E. Peralta, 
 F. Ogliaro, M. J. Bearpark, J. J. Heyd, E. N. Brothers, K. N. Kudin, 
 V. N. Staroverov, T. A. Keith, R. Kobayashi, J. Normand, 
 K. Raghavachari, A. P. Rendell, J. C. Burant, S. S. Iyengar, 
 J. Tomasi, M. Cossi, J. M. Millam, M. Klene, C. Adamo, R. Cammi, 
 J. W. Ochterski, R. L. Martin, K. Morokuma, O. Farkas, 
 J. B. Foresman, and D. J. Fox, Gaussian, Inc., Wallingford CT, 2016.
 
 ******************************************
 Gaussian 16:  EM64L-G16RevB.01 20-Dec-2017
                16-Dec-2025 
 ******************************************
 %chk=h2o_b3lyp.chk
 ----------------------------------------
 #p opt freq b3lyp/6-311++g(d,p) scrf=smd
 ----------------------------------------
 1/18=20,19=15,26=3,38=1/1,3;
 2/9=110,12=2,17=6,18=5,40=1/2;
 3/5=4,6=6,7=1111,11=2,25=1,30=1,70=32201,71=1,74=-5/1,2,3;
 4//1;
 5/5=2,38=5/2;
 6/7=2,8=2,9=2,10=2,28=1/1;
 7//1,2,3,16;
 1/18=20,19=15,26=3/3(2);
 2/9=110/2;
 99//99;
 2/9=110/2;
 3/5=4,6=6,7=1111,11=2,25=1,30=1,70=32205,71=1,74=-5/1,2,3;
 4/5=5,16=3,69=1/1;
 5/5=2,38=5/2;
 7//1,2,3,16;
 1/18=20,19=15,26=3/3(-5);
 2/9=110/2;
 6/7=2,8=2,9=2,10=2,19=2,28=1/1;
 99/9=1/99;
 Leave Link    1 at Tue Dec 16 19:07:10 2025, MaxMem=           0 cpu:               0.0 elap:               0.1
 (Enter /mnt/Data/G16//g16/l101.exe)
 ---------
 h2o_b3lyp
 ---------
 Symbolic Z-matrix:
 Charge =  0 Multiplicity = 1
 O                     0.        0.        0.11828 
 H                     0.        0.76273  -0.47313 
 H                     0.       -0.76273  -0.47313 
 
 ITRead=  0  0  0
 MicOpt= -1 -1 -1
 NAtoms=      3 NQM=        3 NQMF=       0 NMMI=      0 NMMIF=      0
                NMic=       0 NMicF=      0.
                    Isotopes and Nuclear Properties:
 (Nuclear quadrupole moments (NQMom) in fm**2, nuclear magnetic moments (NMagM)
  in nuclear magnetons)

  Atom         1           2           3
 IAtWgt=          16           1           1
 AtmWgt=  15.9949146   1.0078250   1.0078250
 NucSpn=           0           1           1
 AtZEff=  -0.0000000  -0.0000000  -0.0000000
 NQMom=    0.0000000   0.0000000   0.0000000
 NMagM=    0.0000000   2.7928460   2.7928460
 AtZNuc=   8.0000000   1.0000000   1.0000000
 Leave Link  101 at Tue Dec 16 19:07:10 2025, MaxMem=   104857600 cpu:               0.2 elap:               0.3
 (Enter /mnt/Data/G16//g16/l103.exe)

 GradGradGradGradGradGradGradGradGradGradGradGradGradGradGradGradGradGrad
 Berny optimization.
 Initialization pass.
                           ----------------------------
                           !    Initial Parameters    !
                           ! (Angstroms and Degrees)  !
 --------------------------                            --------------------------
 ! Name  Definition              Value          Derivative Info.                !
 --------------------------------------------------------------------------------
 ! R1    R(1,2)                  0.9652         estimate D2E/DX2                !
 ! R2    R(1,3)                  0.9652         estimate D2E/DX2                !
 ! A1    A(2,1,3)              104.4212         estimate D2E/DX2                !
 --------------------------------------------------------------------------------
 Trust Radius=3.00D-01 FncErr=1.00D-07 GrdErr=1.00D-06 EigMax=2.50D+02 EigMin=1.00D-04
 Number of steps in this run=     20 maximum allowed number of steps=    100.
 GradGradGradGradGradGradGradGradGradGradGradGradGradGradGradGradGradGrad

 Leave Link  103 at Tue Dec 16 19:07:10 2025, MaxMem=   104857600 cpu:               0.0 elap:               0.1
 (Enter /mnt/Data/G16//g16/l202.exe)
                          Input orientation:                          
 ---------------------------------------------------------------------
 Center     Atomic      Atomic             Coordinates (Angstroms)
 Number     Number       Type             X           Y           Z
 ---------------------------------------------------------------------
      1          8           0        0.000000    0.000000    0.118281
      2          1           0        0.000000    0.762729   -0.473126
      3          1           0        0.000000   -0.762729   -0.473126
 ---------------------------------------------------------------------
                    Distance matrix (angstroms):
                    1          2          3
     1  O    0.000000
     2  H    0.965152   0.000000
     3  H    0.965152   1.525458   0.000000
 Stoichiometry    H2O
 Framework group  C2V[C2(O),SGV(H2)]
 Deg. of freedom     2
 Full point group                 C2V     NOp   4
 Largest Abelian subgroup         C2V     NOp   4
 Largest concise Abelian subgroup C2      NOp   2
                         Standard orientation:                         
 ---------------------------------------------------------------------
 Center     Atomic      Atomic             Coordinates (Angstroms)
 Number     Number       Type             X           Y           Z
 ---------------------------------------------------------------------
      1          8           0        0.000000   -0.000000    0.118281
      2          1           0        0.000000    0.762729   -0.473126
      3          1           0       -0.000000   -0.762729   -0.473126
 ---------------------------------------------------------------------
 Rotational constants (GHZ):         807.1877141         430.9843919         280.9668417
 Leave Link  202 at Tue Dec 16 19:07:11 2025, MaxMem=   104857600 cpu:               0.0 elap:               0.1
 (Enter /mnt/Data/G16//g16/l301.exe)
 Standard basis: 6-311++G(d,p) (5D, 7F)
 Ernie: Thresh=  0.10000D-02 Tol=  0.10000D-05 Strict=F.
 There are    18 symmetry adapted cartesian basis functions of A1  symmetry.
 There are     2 symmetry adapted cartesian basis functions of A2  symmetry.
 There are     6 symmetry adapted cartesian basis functions of B1  symmetry.
 There are    11 symmetry adapted cartesian basis functions of B2  symmetry.
 There are    17 symmetry adapted basis functions of A1  symmetry.
 There are     2 symmetry adapted basis functions of A2  symmetry.
 There are     6 symmetry adapted basis functions of B1  symmetry.
 There are    11 symmetry adapted basis functions of B2  symmetry.
    36 basis functions,    54 primitive gaussians,    37 cartesian basis functions
     5 alpha electrons        5 beta electrons
       nuclear repulsion energy         9.1194410468 Hartrees.
 IExCor=  402 DFT=T Ex+Corr=B3LYP ExCW=0 ScaHFX=  0.200000
 ScaDFX=  0.800000  0.720000  1.000000  0.810000 ScalE2=  1.000000  1.000000
 IRadAn=      5 IRanWt=     -1 IRanGd=            0 ICorTp=0 IEmpDi=  4
 NAtoms=    3 NActive=    3 NUniq=    2 SFac= 2.25D+00 NAtFMM=   60 NAOKFM=F Big=F
 Integral buffers will be    131072 words long.
 Raffenetti 2 integral format.
 Two-electron integral symmetry is turned on.
 ------------------------------------------------------------------------------
 Polarizable Continuum Model (PCM)
 =================================
 Model                : PCM.
 Atomic radii         : SMD-Coulomb.
 Polarization charges : Total charges.
 Charge compensation  : None.
 Solution method      : On-the-fly selection.
 Cavity type          : VdW (van der Waals Surface) (Alpha=1.000).
 Cavity algorithm     : GePol (No added spheres)
                        Default sphere list used, NSphG=    3.
                        Lebedev-Laikov grids with approx.  5.0 points / Ang**2.
                        Smoothing algorithm: York/Karplus (Gamma=1.0000).
                        Polarization charges: spherical gaussians, with
                                              point-specific exponents (IZeta= 3).
                        Self-potential: point-specific (ISelfS= 7).
                        Self-field    : sphere-specific E.n sum rule (ISelfD= 2).
 1st derivatives      : Analytical E(r).r(x)/FMM algorithm (CHGder, D1EAlg=3).
                        Cavity 1st derivative terms included.
 Solvent              : Water, Eps=  78.355300 Eps(inf)=   1.777849
 ------------------------------------------------------------------------------
 Spheres list:
 ISph  on   Nord     Re0    Alpha      Xe            Ye            Ze
    1   O      1    1.5200  1.000      0.000000     -0.000000      0.118281
    2   H      2    1.2000  1.000     -0.000000      0.762729     -0.473126
    3   H      3    1.2000  1.000     -0.000000     -0.762729     -0.473126
 ------------------------------------------------------------------------------
 GePol: Number of generator spheres                  =       3
 GePol: Total number of spheres                      =       3
 GePol: Number of exposed spheres                    =       3 (100.00%)
 GePol: Number of points                             =     244
 GePol: Average weight of points                     =       0.15
 GePol: Minimum weight of points                     =   0.35D-06
 GePol: Maximum weight of points                     =    0.21991
 GePol: Number of points with low weight             =      16
 GePol: Fraction of low-weight points (<1% of avg)   =       6.56%
 GePol: Cavity surface area                          =     36.057 Ang**2
 GePol: Cavity volume                                =     19.205 Ang**3
 ------------------------------------------------------------------------------
 Atomic radii for non-electrostatic terms: SMD-CDS.
 ------------------------------------------------------------------------------
 PCM non-electrostatic energy =         0.0022782246 Hartrees.
 Nuclear repulsion after PCM non-electrostatic terms =        9.1217192714 Hartrees.
 Leave Link  301 at Tue Dec 16 19:07:11 2025, MaxMem=   104857600 cpu:               0.0 elap:               0.1
 (Enter /mnt/Data/G16//g16/l302.exe)
 NPDir=0 NMtPBC=     1 NCelOv=     1 NCel=       1 NClECP=     1 NCelD=      1
         NCelK=      1 NCelE2=     1 NClLst=     1 CellRange=     0.0.
 One-electron integrals computed using PRISM.
 One-electron integral symmetry used in STVInt
 NBasis=    36 RedAO= T EigKep=  3.56D-03  NBF=    17     2     6    11
 NBsUse=    36 1.00D-06 EigRej= -1.00D+00 NBFU=    17     2     6    11
 Precomputing XC quadrature grid using
 IXCGrd= 4 IRadAn=           5 IRanWt=          -1 IRanGd=           0 AccXCQ= 0.00D+00.
 Generated NRdTot=       0 NPtTot=           0 NUsed=           0 NTot=          32
 NSgBfM=    37    37    37    37    37 MxSgAt=     3 MxSgA2=     3.
 Leave Link  302 at Tue Dec 16 19:07:11 2025, MaxMem=   104857600 cpu:               0.1 elap:               0.2
 (Enter /mnt/Data/G16//g16/l303.exe)
 DipDrv:  MaxL=1.
 Leave Link  303 at Tue Dec 16 19:07:11 2025, MaxMem=   104857600 cpu:               0.0 elap:               0.1
 (Enter /mnt/Data/G16//g16/l401.exe)
 ExpMin= 3.60D-02 ExpMax= 8.59D+03 ExpMxC= 1.30D+03 IAcc=3 IRadAn=         5 AccDes= 0.00D+00
 Harris functional with IExCor=  402 and IRadAn=       5 diagonalized for initial guess.
 HarFok:  IExCor=  402 AccDes= 0.00D+00 IRadAn=         5 IDoV= 1 UseB2=F ITyADJ=14
 ICtDFT=  3500011 ScaDFX=  1.000000  1.000000  1.000000  1.000000
 FoFCou: FMM=F IPFlag=           0 FMFlag=      100000 FMFlg1=           0
         NFxFlg=           0 DoJE=T BraDBF=F KetDBF=T FulRan=T
         wScrn=  0.000000 ICntrl=       500 IOpCl=  0 I1Cent=   200000004 NGrid=           0
         NMat0=    1 NMatS0=      1 NMatT0=    0 NMatD0=    1 NMtDS0=    0 NMtDT0=    0
 Petite list used in FoFCou.
 Harris En= -76.4901352693433    
 JPrj=0 DoOrth=F DoCkMO=F.
 Initial guess orbital symmetries:
       Occupied  (A1) (A1) (B2) (A1) (B1)
       Virtual   (A1) (B2) (A1) (B2) (B1) (A1) (B2) (A1) (B2) (A1)
                 (A1) (B1) (B2) (A1) (A2) (A1) (B1) (B2) (B2) (A1)
                 (A1) (B2) (B1) (A2) (A1) (A1) (B2) (B1) (A1) (B2)
                 (A1)
 The electronic state of the initial guess is 1-A1.
 Leave Link  401 at Tue Dec 16 19:07:12 2025, MaxMem=   104857600 cpu:               0.1 elap:               0.3
 (Enter /mnt/Data/G16//g16/l502.exe)
 Keep R1 ints in memory in symmetry-blocked form, NReq=1654520.
 FoFCou: FMM=F IPFlag=           0 FMFlag=           0 FMFlg1=           0
         NFxFlg=           0 DoJE=F BraDBF=F KetDBF=F FulRan=T
         wScrn=  0.000000 ICntrl=       600 IOpCl=  0 I1Cent=           0 NGrid=           0
         NMat0=    1 NMatS0=    666 NMatT0=    0 NMatD0=    1 NMtDS0=    0 NMtDT0=    0
 Petite list used in FoFCou.
 Closed shell SCF:
 Using DIIS extrapolation, IDIIS=  1040.
 NGot=   104857600 LenX=   104789126 LenY=   104787316
 Requested convergence on RMS density matrix=1.00D-08 within 128 cycles.
 Requested convergence on MAX density matrix=1.00D-06.
 Requested convergence on             energy=1.00D-06.
 No special actions if energy rises.

 Cycle   1  Pass 1  IDiag  1:
 Inv3:  Mode=1 IEnd=      178608.
 Iteration    1 A*A^-1 deviation from unit magnitude is 2.66D-15 for    212.
 Iteration    1 A*A^-1 deviation from orthogonality  is 1.27D-15 for    208    124.
 Iteration    1 A^-1*A deviation from unit magnitude is 2.55D-15 for    212.
 Iteration    1 A^-1*A deviation from orthogonality  is 9.42D-16 for    114     96.
 E= -76.3971990306183    
 DIIS: error= 7.47D-02 at cycle   1 NSaved=   1.
 NSaved= 1 IEnMin= 1 EnMin= -76.3971990306183     IErMin= 1 ErrMin= 7.47D-02
 ErrMax= 7.47D-02  0.00D+00 EMaxC= 1.00D-01 BMatC= 1.17D-01 BMatP= 1.17D-01
 IDIUse=3 WtCom= 2.53D-01 WtEn= 7.47D-01
 Coeff-Com:  0.100D+01
 Coeff-En:   0.100D+01
 Coeff:      0.100D+01
 Gap=     0.172 Goal=   None    Shift=    0.000
 GapD=    0.172 DampG=1.000 DampE=0.500 DampFc=0.5000 IDamp=-1.
 Damping current iteration by 5.00D-01
 RMSDP=1.05D-02 MaxDP=1.22D-01              OVMax= 2.31D-01

 Cycle   2  Pass 1  IDiag  1:
 E= -76.4116008239379     Delta-E=       -0.014401793320 Rises=F Damp=T
 DIIS: error= 2.40D-02 at cycle   2 NSaved=   2.
 NSaved= 2 IEnMin= 2 EnMin= -76.4116008239379     IErMin= 2 ErrMin= 2.40D-02
 ErrMax= 2.40D-02  0.00D+00 EMaxC= 1.00D-01 BMatC= 1.21D-02 BMatP= 1.17D-01
 IDIUse=3 WtCom= 7.60D-01 WtEn= 2.40D-01
 Coeff-Com:  0.234D+00 0.766D+00
 Coeff-En:   0.413D+00 0.587D+00
 Coeff:      0.277D+00 0.723D+00
 Gap=     0.307 Goal=   None    Shift=    0.000
 RMSDP=1.63D-03 MaxDP=1.72D-02 DE=-1.44D-02 OVMax= 1.47D-01

 Cycle   3  Pass 1  IDiag  1:
 E= -76.4719975463890     Delta-E=       -0.060396722451 Rises=F Damp=F
 DIIS: error= 2.47D-03 at cycle   3 NSaved=   3.
 NSaved= 3 IEnMin= 3 EnMin= -76.4719975463890     IErMin= 3 ErrMin= 2.47D-03
 ErrMax= 2.47D-03  0.00D+00 EMaxC= 1.00D-01 BMatC= 1.43D-04 BMatP= 1.21D-02
 IDIUse=3 WtCom= 9.75D-01 WtEn= 2.47D-02
 Coeff-Com:  0.358D-01 0.176D-01 0.947D+00
 Coeff-En:   0.000D+00 0.000D+00 0.100D+01
 Coeff:      0.349D-01 0.171D-01 0.948D+00
 Gap=     0.319 Goal=   None    Shift=    0.000
 RMSDP=1.30D-04 MaxDP=2.18D-03 DE=-6.04D-02 OVMax= 1.83D-03

 Cycle   4  Pass 1  IDiag  1:
 E= -76.4720629751780     Delta-E=       -0.000065428789 Rises=F Damp=F
 DIIS: error= 3.57D-04 at cycle   4 NSaved=   4.
 NSaved= 4 IEnMin= 4 EnMin= -76.4720629751780     IErMin= 4 ErrMin= 3.57D-04
 ErrMax= 3.57D-04  0.00D+00 EMaxC= 1.00D-01 BMatC= 3.24D-06 BMatP= 1.43D-04
 IDIUse=3 WtCom= 9.96D-01 WtEn= 3.57D-03
 Coeff-Com:  0.550D-02-0.774D-02 0.118D+00 0.884D+00
 Coeff-En:   0.000D+00 0.000D+00 0.000D+00 0.100D+01
 Coeff:      0.548D-02-0.771D-02 0.118D+00 0.885D+00
 Gap=     0.320 Goal=   None    Shift=    0.000
 RMSDP=1.95D-05 MaxDP=2.28D-04 DE=-6.54D-05 OVMax= 3.65D-04

 Cycle   5  Pass 1  IDiag  1:
 E= -76.4720650835772     Delta-E=       -0.000002108399 Rises=F Damp=F
 DIIS: error= 8.95D-05 at cycle   5 NSaved=   5.
 NSaved= 5 IEnMin= 5 EnMin= -76.4720650835772     IErMin= 5 ErrMin= 8.95D-05
 ErrMax= 8.95D-05  0.00D+00 EMaxC= 1.00D-01 BMatC= 1.38D-07 BMatP= 3.24D-06
 IDIUse=1 WtCom= 1.00D+00 WtEn= 0.00D+00
 Coeff-Com:  0.140D-02-0.190D-02 0.134D-01 0.150D+00 0.837D+00
 Coeff:      0.140D-02-0.190D-02 0.134D-01 0.150D+00 0.837D+00
 Gap=     0.320 Goal=   None    Shift=    0.000
 RMSDP=4.83D-06 MaxDP=4.69D-05 DE=-2.11D-06 OVMax= 8.87D-05

 Cycle   6  Pass 1  IDiag  1:
 E= -76.4720651806525     Delta-E=       -0.000000097075 Rises=F Damp=F
 DIIS: error= 6.43D-06 at cycle   6 NSaved=   6.
 NSaved= 6 IEnMin= 6 EnMin= -76.4720651806525     IErMin= 6 ErrMin= 6.43D-06
 ErrMax= 6.43D-06  0.00D+00 EMaxC= 1.00D-01 BMatC= 7.66D-10 BMatP= 1.38D-07
 IDIUse=1 WtCom= 1.00D+00 WtEn= 0.00D+00
 Coeff-Com:  0.228D-04-0.669D-04 0.550D-03-0.543D-02-0.296D-01 0.103D+01
 Coeff:      0.228D-04-0.669D-04 0.550D-03-0.543D-02-0.296D-01 0.103D+01
 Gap=     0.320 Goal=   None    Shift=    0.000
 RMSDP=5.41D-07 MaxDP=6.07D-06 DE=-9.71D-08 OVMax= 1.06D-05

 Cycle   7  Pass 1  IDiag  1:
 E= -76.4720651812927     Delta-E=       -0.000000000640 Rises=F Damp=F
 DIIS: error= 2.79D-07 at cycle   7 NSaved=   7.
 NSaved= 7 IEnMin= 7 EnMin= -76.4720651812927     IErMin= 7 ErrMin= 2.79D-07
 ErrMax= 2.79D-07  0.00D+00 EMaxC= 1.00D-01 BMatC= 1.67D-12 BMatP= 7.66D-10
 IDIUse=1 WtCom= 1.00D+00 WtEn= 0.00D+00
 Coeff-Com: -0.572D-05 0.136D-04-0.956D-04 0.457D-03-0.229D-02-0.126D+00
 Coeff-Com:  0.113D+01
 Coeff:     -0.572D-05 0.136D-04-0.956D-04 0.457D-03-0.229D-02-0.126D+00
 Coeff:      0.113D+01
 Gap=     0.320 Goal=   None    Shift=    0.000
 RMSDP=5.60D-08 MaxDP=6.36D-07 DE=-6.40D-10 OVMax= 1.23D-06

 Cycle   8  Pass 1  IDiag  1:
 E= -76.4720651812947     Delta-E=       -0.000000000002 Rises=F Damp=F
 DIIS: error= 6.23D-08 at cycle   8 NSaved=   8.
 NSaved= 8 IEnMin= 8 EnMin= -76.4720651812947     IErMin= 8 ErrMin= 6.23D-08
 ErrMax= 6.23D-08  0.00D+00 EMaxC= 1.00D-01 BMatC= 7.09D-14 BMatP= 1.67D-12
 IDIUse=1 WtCom= 1.00D+00 WtEn= 0.00D+00
 Coeff-Com: -0.113D-06 0.174D-06-0.333D-05 0.124D-04 0.512D-03 0.537D-02
 Coeff-Com: -0.821D-01 0.108D+01
 Coeff:     -0.113D-06 0.174D-06-0.333D-05 0.124D-04 0.512D-03 0.537D-02
 Coeff:     -0.821D-01 0.108D+01
 Gap=     0.320 Goal=   None    Shift=    0.000
 RMSDP=3.61D-09 MaxDP=4.95D-08 DE=-2.05D-12 OVMax= 8.19D-08

 Error on total polarization charges =  0.03019
 SCF Done:  E(RB3LYP) =  -76.4720651813     A.U. after    8 cycles
            NFock=  8  Conv=0.36D-08     -V/T= 2.0036
 KE= 7.619518044710D+01 PE=-1.991662494652D+02 EE= 3.737728456540D+01
 SMD-CDS (non-electrostatic) energy       (kcal/mol) =       1.43
 (included in total energy above)
 Leave Link  502 at Tue Dec 16 19:07:13 2025, MaxMem=   104857600 cpu:               0.7 elap:               0.9
 (Enter /mnt/Data/G16//g16/l601.exe)
 Copying SCF densities to generalized density rwf, IOpCl= 0 IROHF=0.

 **********************************************************************

            Population analysis using the SCF Density.

 **********************************************************************

 Orbital symmetries:
       Occupied  (A1) (A1) (B2) (A1) (B1)
       Virtual   (A1) (B2) (A1) (B1) (A1) (B2) (B2) (A1) (B2) (A1)
                 (A1) (B1) (B2) (A1) (A2) (A1) (B1) (B2) (B2) (A1)
                 (A1) (B2) (B1) (A2) (A1) (A1) (B2) (B1) (A1) (B2)
                 (A1)
 The electronic state is 1-A1.
 Alpha  occ. eigenvalues --  -19.12931  -1.01609  -0.53182  -0.40241  -0.32617
 Alpha virt. eigenvalues --   -0.00625   0.04567   0.14143   0.14754   0.15920
 Alpha virt. eigenvalues --    0.16797   0.22303   0.22828   0.51214   0.56436
 Alpha virt. eigenvalues --    0.95340   0.98610   1.00022   1.23049   1.27275
 Alpha virt. eigenvalues --    1.34979   1.46821   1.68081   1.99598   2.13476
 Alpha virt. eigenvalues --    2.41400   2.58929   3.08805   3.13325   3.30348
 Alpha virt. eigenvalues --    3.66509   3.88415   4.92003   5.29958   5.60690
 Alpha virt. eigenvalues --   49.85464
          Condensed to atoms (all electrons):
               1          2          3
     1  O    7.999057   0.316452   0.316452
     2  H    0.316452   0.383364  -0.015797
     3  H    0.316452  -0.015797   0.383364
 Mulliken charges:
               1
     1  O   -0.631961
     2  H    0.315981
     3  H    0.315981
 Sum of Mulliken charges =  -0.00000
 Mulliken charges with hydrogens summed into heavy atoms:
               1
     1  O   -0.000000
 Electronic spatial extent (au):  <R**2>=             20.0191
 Charge=             -0.0000 electrons
 Dipole moment (field-independent basis, Debye):
    X=             -0.0000    Y=              0.0000    Z=             -2.6303  Tot=              2.6303
 Quadrupole moment (field-independent basis, Debye-Ang):
   XX=             -7.8996   YY=             -4.2610   ZZ=             -6.4892
   XY=              0.0000   XZ=              0.0000   YZ=             -0.0000
 Traceless Quadrupole moment (field-independent basis, Debye-Ang):
   XX=             -1.6830   YY=              1.9556   ZZ=             -0.2726
   XY=              0.0000   XZ=              0.0000   YZ=             -0.0000
 Octapole moment (field-independent basis, Debye-Ang**2):
  XXX=              0.0000  YYY=              0.0000  ZZZ=             -2.0949  XYY=             -0.0000
  XXY=              0.0000  XXZ=             -0.6130  XZZ=             -0.0000  YZZ=             -0.0000
  YYZ=             -1.6956  XYZ=             -0.0000
 Hexadecapole moment (field-independent basis, Debye-Ang**3):
 XXXX=             -7.9018 YYYY=             -6.1842 ZZZZ=             -8.0994 XXXY=             -0.0000
 XXXZ=             -0.0000 YYYX=              0.0000 YYYZ=             -0.0000 ZZZX=             -0.0000
 ZZZY=              0.0000 XXYY=             -2.6675 XXZZ=             -2.7292 YYZZ=             -2.0013
 XXYZ=             -0.0000 YYXZ=              0.0000 ZZXY=              0.0000
 N-N= 9.121719271405D+00 E-N=-1.991662477930D+02  KE= 7.619518044710D+01
 Symmetry A1   KE= 6.798539843848D+01
 Symmetry A2   KE= 1.164486488566D-35
 Symmetry B1   KE= 4.481235723823D+00
 Symmetry B2   KE= 3.728546284787D+00
 No NMR shielding tensors so no spin-rotation constants.
 Leave Link  601 at Tue Dec 16 19:07:13 2025, MaxMem=   104857600 cpu:               0.1 elap:               0.2
 (Enter /mnt/Data/G16//g16/l701.exe)
 ... and contract with generalized density number  0.
 Compute integral first derivatives.
 D1PCM: PCM CHGder 1st derivatives, ID1Alg=3 FixD1E=F DoIter=F DoCFld=F I1PDM=0.
 GePol: Maximum number of non-zero 1st derivatives   =     154
 Leave Link  701 at Tue Dec 16 19:07:13 2025, MaxMem=   104857600 cpu:               0.2 elap:               0.3
 (Enter /mnt/Data/G16//g16/l702.exe)
 L702 exits ... SP integral derivatives will be done elsewhere.
 Leave Link  702 at Tue Dec 16 19:07:13 2025, MaxMem=   104857600 cpu:               0.0 elap:               0.0
 (Enter /mnt/Data/G16//g16/l703.exe)
 Integral derivatives from FoFJK, PRISM(SPDF).
 Compute integral first derivatives, UseDBF=F ICtDFT=           0.
 Calling FoFJK, ICntrl=      2127 FMM=F ISym2X=1 I1Cent= 0 IOpClX= 0 NMat=1 NMatS=1 NMatT=0.
 FoFJK:  IHMeth= 1 ICntrl=    2127 DoSepK=F KAlg= 0 I1Cent=           0 FoldK=F
 IRaf=         0 NMat=       1 IRICut=       1 DoRegI=T DoRafI=F ISym2E= 1 IDoP0=0 IntGTp=1.
 FoFCou: FMM=F IPFlag=           0 FMFlag=      100000 FMFlg1=         800
         NFxFlg=           0 DoJE=F BraDBF=F KetDBF=F FulRan=T
         wScrn=  0.000000 ICntrl=      2127 IOpCl=  0 I1Cent=           0 NGrid=           0
         NMat0=    1 NMatS0=      1 NMatT0=    0 NMatD0=    1 NMtDS0=    0 NMtDT0=    0
 Petite list used in FoFCou.
 Leave Link  703 at Tue Dec 16 19:07:14 2025, MaxMem=   104857600 cpu:               0.2 elap:               0.3
 (Enter /mnt/Data/G16//g16/l716.exe)
 Dipole        =-5.26372595D-17 0.00000000D+00-1.03482105D+00
 ***** Axes restored to original set *****
 -------------------------------------------------------------------
 Center     Atomic                   Forces (Hartrees/Bohr)
 Number     Number              X              Y              Z
 -------------------------------------------------------------------
      1        8          -0.000000000   -0.000000000    0.000213207
      2        1           0.000000000   -0.000048857   -0.000106604
      3        1           0.000000000    0.000048857   -0.000106604
 -------------------------------------------------------------------
 Cartesian Forces:  Max     0.000213207 RMS     0.000090037
 Leave Link  716 at Tue Dec 16 19:07:14 2025, MaxMem=   104857600 cpu:               0.0 elap:               0.1
 (Enter /mnt/Data/G16//g16/l103.exe)

 GradGradGradGradGradGradGradGradGradGradGradGradGradGradGradGradGradGrad
 Berny optimization.
 FormGI is forming the generalized inverse of G from B-inverse, IUseBI=4.
 Internal  Forces:  Max     0.000208255 RMS     0.000122198
 Search for a local minimum.
 Step number   1 out of a maximum of   20
 All quantities printed in internal units (Hartrees-Bohrs-Radians)
 RMS Force = .12220D-03 SwitMx=.10000D-02 MixMth= 2
 Mixed Optimization -- En-DIIS/RFO-DIIS
 Second derivative matrix not updated -- first step.
 The second derivative matrix:
                          R1        R2        A1
           R1           0.54380
           R2           0.00000   0.54380
           A1           0.00000   0.00000   0.16000
 ITU=  0
     Eigenvalues ---    0.16000   0.54380   0.54380
 RFO step:  Lambda=-2.73688196D-07 EMin= 1.60000000D-01
 Linear search not attempted -- first point.
 Iteration  1 RMS(Cart)=  0.00072409 RMS(Int)=  0.00000032
 Iteration  2 RMS(Cart)=  0.00000028 RMS(Int)=  0.00000000
 ITry= 1 IFail=0 DXMaxC= 6.89D-04 DCOld= 1.00D+10 DXMaxT= 3.00D-01 DXLimC= 3.00D+00 Rises=F
 ClnCor:  largest displacement from symmetrization is 3.14D-16 for atom     3.
 Variable       Old X    -DE/DX   Delta X   Delta X   Delta X     New X
                                 (Linear)    (Quad)   (Total)
    R1        1.82387   0.00003   0.00000   0.00005   0.00005   1.82392
    R2        1.82387   0.00003   0.00000   0.00005   0.00005   1.82392
    A1        1.82249  -0.00021   0.00000  -0.00130  -0.00130   1.82119
         Item               Value     Threshold  Converged?
 Maximum Force            0.000208     0.000450     YES
 RMS     Force            0.000122     0.000300     YES
 Maximum Displacement     0.000689     0.001800     YES
 RMS     Displacement     0.000724     0.001200     YES
 Predicted change in Energy=-1.368441D-07
 Optimization completed.
    -- Stationary point found.
                           ----------------------------
                           !   Optimized Parameters   !
                           ! (Angstroms and Degrees)  !
 --------------------------                            --------------------------
 ! Name  Definition              Value          Derivative Info.                !
 --------------------------------------------------------------------------------
 ! R1    R(1,2)                  0.9652         -DE/DX =    0.0                 !
 ! R2    R(1,3)                  0.9652         -DE/DX =    0.0                 !
 ! A1    A(2,1,3)              104.4212         -DE/DX =   -0.0002              !
 --------------------------------------------------------------------------------
 Lowest energy point so far.  Saving SCF results.
 Largest change from initial coordinates is atom    0       0.000 Angstoms.
 GradGradGradGradGradGradGradGradGradGradGradGradGradGradGradGradGradGrad

 Leave Link  103 at Tue Dec 16 19:07:14 2025, MaxMem=   104857600 cpu:               0.0 elap:               0.1
 (Enter /mnt/Data/G16//g16/l202.exe)
                          Input orientation:                          
 ---------------------------------------------------------------------
 Center     Atomic      Atomic             Coordinates (Angstroms)
 Number     Number       Type             X           Y           Z
 ---------------------------------------------------------------------
      1          8           0        0.000000    0.000000    0.118281
      2          1           0        0.000000    0.762729   -0.473126
      3          1           0       -0.000000   -0.762729   -0.473126
 ---------------------------------------------------------------------
                    Distance matrix (angstroms):
                    1          2          3
     1  O    0.000000
     2  H    0.965152   0.000000
     3  H    0.965152   1.525458   0.000000
 Stoichiometry    H2O
 Framework group  C2V[C2(O),SGV(H2)]
 Deg. of freedom     2
 Full point group                 C2V     NOp   4
 RotChk:  IX=0 Diff= 7.77D-16
 Largest Abelian subgroup         C2V     NOp   4
 Largest concise Abelian subgroup C2      NOp   2
                         Standard orientation:                         
 ---------------------------------------------------------------------
 Center     Atomic      Atomic             Coordinates (Angstroms)
 Number     Number       Type             X           Y           Z
 ---------------------------------------------------------------------
      1          8           0        0.000000    0.000000    0.118281
      2          1           0        0.000000    0.762729   -0.473126
      3          1           0       -0.000000   -0.762729   -0.473126
 ---------------------------------------------------------------------
 Rotational constants (GHZ):         807.1877141         430.9843919         280.9668417
 Leave Link  202 at Tue Dec 16 19:07:14 2025, MaxMem=   104857600 cpu:               0.0 elap:               0.0
 (Enter /mnt/Data/G16//g16/l9999.exe)
 1\1\GINC-FEDORA\FOpt\RB3LYP\6-311++G(d,p)\H2O1\LEEDMOL\16-Dec-2025\0\\
 #p opt freq b3lyp/6-311++g(d,p) scrf=smd\\h2o_b3lyp\\0,1\O,0.,0.,0.118
 281\H,0.,0.762729,-0.473126\H,0.,-0.762729,-0.473126\\Version=EM64L-G1
 6RevB.01\State=1-A1\HF=-76.4720652\RMSD=3.614e-09\RMSF=9.004e-05\Dipol
 e=0.,0.,-1.034821\Quadrupole=-1.2512608,1.4539338,-0.202673,0.,0.,0.\P
 G=C02V [C2(O1),SGV(H2)]\\@


 Standing in the middle of the road is very dangerous;
 you get knocked down by the traffic from both sides.
                                -- Margaret Thatcher
 Leave Link 9999 at Tue Dec 16 19:07:14 2025, MaxMem=   104857600 cpu:               0.0 elap:               0.1
 Job cpu time:       0 days  0 hours  0 minutes  1.9 seconds.
 Elapsed time:       0 days  0 hours  0 minutes  3.3 seconds.
 File lengths (MBytes):  RWF=      6 Int=      0 D2E=      0 Chk=      1 Scr=      1
 Normal termination of Gaussian 16 at Tue Dec 16 19:07:14 2025.
 (Enter /mnt/Data/G16//g16/l1.exe)
 Link1:  Proceeding to internal job step number  2.
 ----------------------------------------------------------------------
 #P Geom=AllCheck Guess=TCheck SCRF=Check GenChk RB3LYP/6-311++G(d,p) F
 req
 ----------------------------------------------------------------------
 1/10=4,29=7,30=1,38=1,40=1/1,3;
 2/12=2,40=1/2;
 3/5=4,6=6,7=1111,11=2,14=-4,25=1,30=1,70=2,71=2,74=-5,116=1,140=1/1,2,3;
 4/5=101/1;
 5/5=2,38=6,98=1/2;
 8/6=4,10=90,11=11/1;
 11/6=1,8=1,9=11,15=111,16=1/1,2,10;
 10/6=1/2;
 6/7=2,8=2,9=2,10=2,28=1/1;
 7/8=1,10=1,25=1/1,2,3,16;
 1/10=4,30=1/3;
 99//99;
 Leave Link    1 at Tue Dec 16 19:07:14 2025, MaxMem=   104857600 cpu:               0.0 elap:               0.0
 (Enter /mnt/Data/G16//g16/l101.exe)
 Structure from the checkpoint file:  "h2o_b3lyp.chk"
 ---------
 h2o_b3lyp
 ---------
 Charge =  0 Multiplicity = 1
 Redundant internal coordinates found in file.  (old form).
 O,0,0.,0.,0.118281
 H,0,0.,0.762729,-0.473126
 H,0,0.,-0.762729,-0.473126
 Recover connectivity data from disk.
 ITRead=  0  0  0
 MicOpt= -1 -1 -1
 NAtoms=      3 NQM=        3 NQMF=       0 NMMI=      0 NMMIF=      0
                NMic=       0 NMicF=      0.
                    Isotopes and Nuclear Properties:
 (Nuclear quadrupole moments (NQMom) in fm**2, nuclear magnetic moments (NMagM)
  in nuclear magnetons)

  Atom         1           2           3
 IAtWgt=          16           1           1
 AtmWgt=  15.9949146   1.0078250   1.0078250
 NucSpn=           0           1           1
 AtZEff=   5.6000000   1.0000000   1.0000000
 NQMom=    0.0000000   0.0000000   0.0000000
 NMagM=    0.0000000   2.7928460   2.7928460
 AtZNuc=   8.0000000   1.0000000   1.0000000
 Leave Link  101 at Tue Dec 16 19:07:14 2025, MaxMem=   104857600 cpu:               0.2 elap:               0.2
 (Enter /mnt/Data/G16//g16/l103.exe)

 GradGradGradGradGradGradGradGradGradGradGradGradGradGradGradGradGradGrad
 Berny optimization.
 Initialization pass.
                           ----------------------------
                           !    Initial Parameters    !
                           ! (Angstroms and Degrees)  !
 --------------------------                            --------------------------
 ! Name  Definition              Value          Derivative Info.                !
 --------------------------------------------------------------------------------
 ! R1    R(1,2)                  0.9652         calculate D2E/DX2 analytically  !
 ! R2    R(1,3)                  0.9652         calculate D2E/DX2 analytically  !
 ! A1    A(2,1,3)              104.4212         calculate D2E/DX2 analytically  !
 --------------------------------------------------------------------------------
 Trust Radius=3.00D-01 FncErr=1.00D-07 GrdErr=1.00D-07 EigMax=2.50D+02 EigMin=1.00D-04
 Number of steps in this run=      2 maximum allowed number of steps=      2.
 GradGradGradGradGradGradGradGradGradGradGradGradGradGradGradGradGradGrad

 Leave Link  103 at Tue Dec 16 19:07:14 2025, MaxMem=   104857600 cpu:               0.0 elap:               0.0
 (Enter /mnt/Data/G16//g16/l202.exe)
                          Input orientation:                          
 ---------------------------------------------------------------------
 Center     Atomic      Atomic             Coordinates (Angstroms)
 Number     Number       Type             X           Y           Z
 ---------------------------------------------------------------------
      1          8           0       -0.000000   -0.000000    0.118281
      2          1           0        0.000000    0.762729   -0.473126
      3          1           0       -0.000000   -0.762729   -0.473126
 ---------------------------------------------------------------------
                    Distance matrix (angstroms):
                    1          2          3
     1  O    0.000000
     2  H    0.965152   0.000000
     3  H    0.965152   1.525458   0.000000
 Stoichiometry    H2O
 Framework group  C2V[C2(O),SGV(H2)]
 Deg. of freedom     2
 Full point group                 C2V     NOp   4
 RotChk:  IX=0 Diff= 6.95D-16
 Largest Abelian subgroup         C2V     NOp   4
 Largest concise Abelian subgroup C2      NOp   2
                         Standard orientation:                         
 ---------------------------------------------------------------------
 Center     Atomic      Atomic             Coordinates (Angstroms)
 Number     Number       Type             X           Y           Z
 ---------------------------------------------------------------------
      1          8           0        0.000000   -0.000000    0.118281
      2          1           0        0.000000    0.762729   -0.473126
      3          1           0       -0.000000   -0.762729   -0.473126
 ---------------------------------------------------------------------
 Rotational constants (GHZ):         807.1877141         430.9843919         280.9668417
 Leave Link  202 at Tue Dec 16 19:07:14 2025, MaxMem=   104857600 cpu:               0.0 elap:               0.0
 (Enter /mnt/Data/G16//g16/l301.exe)
 Standard basis: 6-311++G(d,p) (5D, 7F)
 Ernie: Thresh=  0.10000D-02 Tol=  0.10000D-05 Strict=F.
 There are    18 symmetry adapted cartesian basis functions of A1  symmetry.
 There are     2 symmetry adapted cartesian basis functions of A2  symmetry.
 There are     6 symmetry adapted cartesian basis functions of B1  symmetry.
 There are    11 symmetry adapted cartesian basis functions of B2  symmetry.
 There are    17 symmetry adapted basis functions of A1  symmetry.
 There are     2 symmetry adapted basis functions of A2  symmetry.
 There are     6 symmetry adapted basis functions of B1  symmetry.
 There are    11 symmetry adapted basis functions of B2  symmetry.
    36 basis functions,    54 primitive gaussians,    37 cartesian basis functions
     5 alpha electrons        5 beta electrons
       nuclear repulsion energy         9.1194410468 Hartrees.
 IExCor=  402 DFT=T Ex+Corr=B3LYP ExCW=0 ScaHFX=  0.200000
 ScaDFX=  0.800000  0.720000  1.000000  0.810000 ScalE2=  1.000000  1.000000
 IRadAn=      5 IRanWt=     -1 IRanGd=            0 ICorTp=0 IEmpDi=  4
 NAtoms=    3 NActive=    3 NUniq=    2 SFac= 2.25D+00 NAtFMM=   60 NAOKFM=F Big=F
 Integral buffers will be    131072 words long.
 Raffenetti 2 integral format.
 Two-electron integral symmetry is turned on.
 Force inversion solution in PCM.
 ------------------------------------------------------------------------------
 Polarizable Continuum Model (PCM)
 =================================
 Model                : PCM.
 Atomic radii         : SMD-Coulomb.
 Polarization charges : Total charges.
 Charge compensation  : None.
 Solution method      : Matrix inversion.
 Cavity type          : VdW (van der Waals Surface) (Alpha=1.000).
 Cavity algorithm     : GePol (No added spheres)
                        Default sphere list used, NSphG=    3.
                        Lebedev-Laikov grids with approx.  5.0 points / Ang**2.
                        Smoothing algorithm: York/Karplus (Gamma=1.0000).
                        Polarization charges: spherical gaussians, with
                                              point-specific exponents (IZeta= 3).
                        Self-potential: point-specific (ISelfS= 7).
                        Self-field    : sphere-specific E.n sum rule (ISelfD= 2).
 1st derivatives      : Analytical E(r).r(x)/FMM algorithm (CHGder, D1EAlg=3).
                        Cavity 1st derivative terms included.
 2nd derivatives      : Analytical E(r).r(xy)/FMM algorithm (CHGder, D2EAlg=3).
                        Cavity 2nd derivative terms included.
 Solvent              : Water, Eps=  78.355300 Eps(inf)=   1.777849
 ------------------------------------------------------------------------------
 Spheres list:
 ISph  on   Nord     Re0    Alpha      Xe            Ye            Ze
    1   O      1    1.5200  1.000      0.000000     -0.000000      0.118281
    2   H      2    1.2000  1.000      0.000000      0.762729     -0.473126
    3   H      3    1.2000  1.000     -0.000000     -0.762729     -0.473126
 ------------------------------------------------------------------------------
 GePol: Number of generator spheres                  =       3
 GePol: Total number of spheres                      =       3
 GePol: Number of exposed spheres                    =       3 (100.00%)
 GePol: Number of points                             =     244
 GePol: Average weight of points                     =       0.15
 GePol: Minimum weight of points                     =   0.35D-06
 GePol: Maximum weight of points                     =    0.21991
 GePol: Number of points with low weight             =      16
 GePol: Fraction of low-weight points (<1% of avg)   =       6.56%
 GePol: Cavity surface area                          =     36.057 Ang**2
 GePol: Cavity volume                                =     19.205 Ang**3
 ------------------------------------------------------------------------------
 Atomic radii for non-electrostatic terms: SMD-CDS.
 ------------------------------------------------------------------------------
 PCM non-electrostatic energy =         0.0022782246 Hartrees.
 Nuclear repulsion after PCM non-electrostatic terms =        9.1217192714 Hartrees.
 Leave Link  301 at Tue Dec 16 19:07:14 2025, MaxMem=   104857600 cpu:               0.0 elap:               0.0
 (Enter /mnt/Data/G16//g16/l302.exe)
 NPDir=0 NMtPBC=     1 NCelOv=     1 NCel=       1 NClECP=     1 NCelD=      1
         NCelK=      1 NCelE2=     1 NClLst=     1 CellRange=     0.0.
 One-electron integrals computed using PRISM.
 One-electron integral symmetry used in STVInt
 NBasis=    36 RedAO= T EigKep=  3.56D-03  NBF=    17     2     6    11
 NBsUse=    36 1.00D-06 EigRej= -1.00D+00 NBFU=    17     2     6    11
 Precomputing XC quadrature grid using
 IXCGrd= 4 IRadAn=           5 IRanWt=          -1 IRanGd=           0 AccXCQ= 0.00D+00.
 Generated NRdTot=       0 NPtTot=           0 NUsed=           0 NTot=          32
 NSgBfM=    37    37    37    37    37 MxSgAt=     3 MxSgA2=     3.
 Leave Link  302 at Tue Dec 16 19:07:14 2025, MaxMem=   104857600 cpu:               0.1 elap:               0.1
 (Enter /mnt/Data/G16//g16/l303.exe)
 DipDrv:  MaxL=1.
 Leave Link  303 at Tue Dec 16 19:07:14 2025, MaxMem=   104857600 cpu:               0.0 elap:               0.0
 (Enter /mnt/Data/G16//g16/l401.exe)
 Initial guess from the checkpoint file:  "h2o_b3lyp.chk"
 B after Tr=    -0.000000    0.000000   -0.000000
         Rot=    1.000000   -0.000000   -0.000000    0.000000 Ang=   0.00 deg.
 Guess basis will be translated and rotated to current coordinates.
 JPrj=2 DoOrth=T DoCkMO=T.
 Initial guess orbital symmetries:
       Occupied  (A1) (A1) (B2) (A1) (B1)
       Virtual   (A1) (B2) (A1) (B1) (A1) (B2) (B2) (A1) (B2) (A1)
                 (A1) (B1) (B2) (A1) (A2) (A1) (B1) (B2) (B2) (A1)
                 (A1) (B2) (B1) (A2) (A1) (A1) (B2) (B1) (A1) (B2)
                 (A1)
 The electronic state of the initial guess is 1-A1.
 Leave Link  401 at Tue Dec 16 19:07:15 2025, MaxMem=   104857600 cpu:               0.1 elap:               0.1
 (Enter /mnt/Data/G16//g16/l502.exe)
 Keep R1 ints in memory in symmetry-blocked form, NReq=1654520.
 FoFCou: FMM=F IPFlag=           0 FMFlag=           0 FMFlg1=           0
         NFxFlg=           0 DoJE=F BraDBF=F KetDBF=F FulRan=T
         wScrn=  0.000000 ICntrl=       600 IOpCl=  0 I1Cent=           0 NGrid=           0
         NMat0=    1 NMatS0=    666 NMatT0=    0 NMatD0=    1 NMtDS0=    0 NMtDT0=    0
 Petite list used in FoFCou.
 Closed shell SCF:
 Using DIIS extrapolation, IDIIS=  1040.
 NGot=   104857600 LenX=   104789126 LenY=   104787316
 Requested convergence on RMS density matrix=1.00D-08 within 128 cycles.
 Requested convergence on MAX density matrix=1.00D-06.
 Requested convergence on             energy=1.00D-06.
 No special actions if energy rises.

 Cycle   1  Pass 1  IDiag  1:
 Inv3:  Mode=1 IEnd=      178608.
 Iteration    1 A*A^-1 deviation from unit magnitude is 3.00D-15 for      6.
 Iteration    1 A*A^-1 deviation from orthogonality  is 1.09D-15 for     50      6.
 Iteration    1 A^-1*A deviation from unit magnitude is 2.66D-15 for    147.
 Iteration    1 A^-1*A deviation from orthogonality  is 7.54D-16 for    181    153.
 E= -76.4720651812948    
 DIIS: error= 1.45D-09 at cycle   1 NSaved=   1.
 NSaved= 1 IEnMin= 1 EnMin= -76.4720651812948     IErMin= 1 ErrMin= 1.45D-09
 ErrMax= 1.45D-09  0.00D+00 EMaxC= 1.00D-01 BMatC= 3.64D-17 BMatP= 3.64D-17
 IDIUse=1 WtCom= 1.00D+00 WtEn= 0.00D+00
 Coeff-Com:  0.100D+01
 Coeff:      0.100D+01
 Gap=     0.320 Goal=   None    Shift=    0.000
 RMSDP=1.91D-10 MaxDP=2.59D-09              OVMax= 3.77D-09

 Error on total polarization charges =  0.03019
 SCF Done:  E(RB3LYP) =  -76.4720651813     A.U. after    1 cycles
            NFock=  1  Conv=0.19D-09     -V/T= 2.0036
 KE= 7.619518035616D+01 PE=-1.991662477021D+02 EE= 3.737728289320D+01
 SMD-CDS (non-electrostatic) energy       (kcal/mol) =       1.43
 (included in total energy above)
 Leave Link  502 at Tue Dec 16 19:07:15 2025, MaxMem=   104857600 cpu:               0.2 elap:               0.2
 (Enter /mnt/Data/G16//g16/l801.exe)
 DoSCS=F DFT=T ScalE2(SS,OS)=  1.000000  1.000000
 Range of M.O.s used for correlation:     1    36
 NBasis=    36 NAE=     5 NBE=     5 NFC=     0 NFV=     0
 NROrb=     36 NOA=     5 NOB=     5 NVA=    31 NVB=    31
 Leave Link  801 at Tue Dec 16 19:07:15 2025, MaxMem=   104857600 cpu:               0.0 elap:               0.1
 (Enter /mnt/Data/G16//g16/l1101.exe)
 Using compressed storage, NAtomX=     3.
 Will process      4 centers per pass.
 Leave Link 1101 at Tue Dec 16 19:07:15 2025, MaxMem=   104857600 cpu:               0.1 elap:               0.2
 (Enter /mnt/Data/G16//g16/l1102.exe)
 Symmetrizing basis deriv contribution to polar:
 IMax=3 JMax=2 DiffMx= 0.00D+00
 Leave Link 1102 at Tue Dec 16 19:07:15 2025, MaxMem=   104857600 cpu:               0.0 elap:               0.1
 (Enter /mnt/Data/G16//g16/l1110.exe)
 Forming Gx(P) for the SCF density, NAtomX=     3.
 Integral derivatives from FoFJK, PRISM(SPDF).
 Do as many integral derivatives as possible in FoFJK.
 G2DrvN: MDV=     104857236.
 G2DrvN: will do     4 centers at a time, making    1 passes.
 Calling FoFCou, ICntrl=  3107 FMM=F I1Cent=   0 AccDes= 0.00D+00.
 FoFJK:  IHMeth= 1 ICntrl=    3107 DoSepK=F KAlg= 0 I1Cent=           0 FoldK=F
 IRaf=         0 NMat=       1 IRICut=       1 DoRegI=T DoRafI=F ISym2E= 1 IDoP0=0 IntGTp=1.
 FoFCou: FMM=F IPFlag=           0 FMFlag=      100000 FMFlg1=           0
         NFxFlg=           0 DoJE=F BraDBF=F KetDBF=F FulRan=T
         wScrn=  0.000000 ICntrl=      3107 IOpCl=  0 I1Cent=           0 NGrid=           0
         NMat0=    1 NMatS0=      1 NMatT0=    0 NMatD0=    1 NMtDS0=    0 NMtDT0=    0
 Petite list used in FoFCou.
 NEqPCM:  Using equilibrium solvation (IEInf=0, Eps=  78.3553, EpsInf=   1.7778)
 G2PCM: DoFxE=T DoFxN=T DoGrad=T DoDP/DQ/DG/TGxP=FFFF NFrqRd=   0 IEInf=0 SqF1=F DoCFld=F IF1Alg=4.
 GePol: Maximum number of non-zero 1st derivatives   =     154
 End of G2Drv F.D. properties file   721 does not exist.
 End of G2Drv F.D. properties file   722 does not exist.
 End of G2Drv F.D. properties file   788 does not exist.
 Leave Link 1110 at Tue Dec 16 19:07:17 2025, MaxMem=   104857600 cpu:               1.0 elap:               1.2
 (Enter /mnt/Data/G16//g16/l1002.exe)
 Minotr:  Closed shell wavefunction.
          IDoAtm=111
 NEqPCM:  Using equilibrium solvation (IEInf=0, Eps=  78.3553, EpsInf=   1.7778)
          Direct CPHF calculation.
          Differentiating once with respect to electric field.
                with respect to dipole field.
          Differentiating once with respect to nuclear coordinates.
          Using symmetry in CPHF.
          Requested convergence is 1.0D-08 RMS, and 1.0D-07 maximum.
          Secondary convergence is 1.0D-12 RMS, and 1.0D-12 maximum.
          NewPWx=T KeepS1=F KeepF1=F KeepIn=T MapXYZ=F SortEE=F KeepMc=T.
          916 words used for storage of precomputed grid.
 Keep R1 ints in memory in symmetry-blocked form, NReq=1856106.
 FoFCou: FMM=F IPFlag=           0 FMFlag=           0 FMFlg1=           0
         NFxFlg=           0 DoJE=F BraDBF=F KetDBF=F FulRan=T
         wScrn=  0.000000 ICntrl=       600 IOpCl=  0 I1Cent=           0 NGrid=           0
         NMat0=    1 NMatS0=    666 NMatT0=    0 NMatD0=    1 NMtDS0=    0 NMtDT0=    0
 Petite list used in FoFCou.
          MDV=     104857600 using IRadAn=       1.
          Solving linear equations simultaneously, MaxMat=       0.
          There are     9 degrees of freedom in the 1st order CPHF.  IDoFFX=4 NUNeed=     9.
      9 vectors produced by pass  0 Test12= 1.72D-15 1.11D-08 XBig12= 3.41D+00 1.22D+00.
 AX will form     9 AO Fock derivatives at one time.
      9 vectors produced by pass  1 Test12= 1.72D-15 1.11D-08 XBig12= 3.39D-01 2.33D-01.
      9 vectors produced by pass  2 Test12= 1.72D-15 1.11D-08 XBig12= 2.48D-03 1.91D-02.
      9 vectors produced by pass  3 Test12= 1.72D-15 1.11D-08 XBig12= 3.23D-06 7.89D-04.
      8 vectors produced by pass  4 Test12= 1.72D-15 1.11D-08 XBig12= 5.93D-09 2.48D-05.
      4 vectors produced by pass  5 Test12= 1.72D-15 1.11D-08 XBig12= 3.38D-12 6.83D-07.
      1 vectors produced by pass  6 Test12= 1.72D-15 1.11D-08 XBig12= 2.11D-15 1.78D-08.
 InvSVY:  IOpt=1 It=  1 EMax= 2.22D-16
 Solved reduced A of dimension    49 with     9 vectors.
 FullF1:  Do perturbations      1 to       9.
 Isotropic polarizability for W=    0.000000        8.50 Bohr**3.
 End of Minotr F.D. properties file   721 does not exist.
 End of Minotr F.D. properties file   722 does not exist.
 End of Minotr F.D. properties file   788 does not exist.
 Leave Link 1002 at Tue Dec 16 19:07:18 2025, MaxMem=   104857600 cpu:               1.6 elap:               1.9
 (Enter /mnt/Data/G16//g16/l601.exe)
 Copying SCF densities to generalized density rwf, IOpCl= 0 IROHF=0.

 **********************************************************************

            Population analysis using the SCF Density.

 **********************************************************************

 Orbital symmetries:
       Occupied  (A1) (A1) (B2) (A1) (B1)
       Virtual   (A1) (B2) (A1) (B1) (A1) (B2) (B2) (A1) (B2) (A1)
                 (A1) (B1) (B2) (A1) (A2) (A1) (B1) (B2) (B2) (A1)
                 (A1) (B2) (B1) (A2) (A1) (A1) (B2) (B1) (A1) (B2)
                 (A1)
 The electronic state is 1-A1.
 Alpha  occ. eigenvalues --  -19.12931  -1.01609  -0.53182  -0.40241  -0.32617
 Alpha virt. eigenvalues --   -0.00625   0.04567   0.14143   0.14754   0.15920
 Alpha virt. eigenvalues --    0.16797   0.22303   0.22828   0.51214   0.56436
 Alpha virt. eigenvalues --    0.95340   0.98610   1.00022   1.23049   1.27275
 Alpha virt. eigenvalues --    1.34979   1.46821   1.68081   1.99598   2.13476
 Alpha virt. eigenvalues --    2.41400   2.58929   3.08805   3.13325   3.30348
 Alpha virt. eigenvalues --    3.66509   3.88415   4.92003   5.29958   5.60690
 Alpha virt. eigenvalues --   49.85464
          Condensed to atoms (all electrons):
               1          2          3
     1  O    7.999057   0.316452   0.316452
     2  H    0.316452   0.383364  -0.015797
     3  H    0.316452  -0.015797   0.383364
 Mulliken charges:
               1
     1  O   -0.631961
     2  H    0.315981
     3  H    0.315981
 Sum of Mulliken charges =  -0.00000
 Mulliken charges with hydrogens summed into heavy atoms:
               1
     1  O   -0.000000
 APT charges:
               1
     1  O   -0.749428
     2  H    0.374714
     3  H    0.374714
 Sum of APT charges =   0.00000
 APT charges with hydrogens summed into heavy atoms:
               1
     1  O    0.000000
 Electronic spatial extent (au):  <R**2>=             20.0191
 Charge=             -0.0000 electrons
 Dipole moment (field-independent basis, Debye):
    X=             -0.0000    Y=              0.0000    Z=             -2.6303  Tot=              2.6303
 Quadrupole moment (field-independent basis, Debye-Ang):
   XX=             -7.8996   YY=             -4.2610   ZZ=             -6.4892
   XY=              0.0000   XZ=              0.0000   YZ=             -0.0000
 Traceless Quadrupole moment (field-independent basis, Debye-Ang):
   XX=             -1.6830   YY=              1.9556   ZZ=             -0.2726
   XY=              0.0000   XZ=              0.0000   YZ=             -0.0000
 Octapole moment (field-independent basis, Debye-Ang**2):
  XXX=              0.0000  YYY=              0.0000  ZZZ=             -2.0949  XYY=             -0.0000
  XXY=             -0.0000  XXZ=             -0.6130  XZZ=             -0.0000  YZZ=             -0.0000
  YYZ=             -1.6956  XYZ=             -0.0000
 Hexadecapole moment (field-independent basis, Debye-Ang**3):
 XXXX=             -7.9018 YYYY=             -6.1842 ZZZZ=             -8.0994 XXXY=             -0.0000
 XXXZ=             -0.0000 YYYX=              0.0000 YYYZ=              0.0000 ZZZX=             -0.0000
 ZZZY=              0.0000 XXYY=             -2.6675 XXZZ=             -2.7292 YYZZ=             -2.0013
 XXYZ=              0.0000 YYXZ=              0.0000 ZZXY=              0.0000
 N-N= 9.121719271405D+00 E-N=-1.991662476059D+02  KE= 7.619518035616D+01
 Symmetry A1   KE= 6.798539839912D+01
 Symmetry A2   KE= 9.869474023537D-36
 Symmetry B1   KE= 4.481235695656D+00
 Symmetry B2   KE= 3.728546261382D+00
  Exact polarizability:   8.254   0.000   9.447   0.000  -0.000   7.813
 Approx polarizability:   7.143   0.000   9.482   0.000  -0.000   7.543
 No NMR shielding tensors so no spin-rotation constants.
 Leave Link  601 at Tue Dec 16 19:07:19 2025, MaxMem=   104857600 cpu:               0.1 elap:               0.1
 (Enter /mnt/Data/G16//g16/l701.exe)
 ... and contract with generalized density number  0.
 Compute integral second derivatives.
 D2PCM: PCM CHGder 2nd derivatives, FixD1E=F FixD2E=F DoIter=F DoCFld=F I1PDM=0
 GePol: Maximum number of non-zero 2nd derivatives   =     154
 Leave Link  701 at Tue Dec 16 19:07:19 2025, MaxMem=   104857600 cpu:               0.7 elap:               0.7
 (Enter /mnt/Data/G16//g16/l702.exe)
 L702 exits ... SP integral derivatives will be done elsewhere.
 Leave Link  702 at Tue Dec 16 19:07:19 2025, MaxMem=   104857600 cpu:               0.0 elap:               0.0
 (Enter /mnt/Data/G16//g16/l703.exe)
 Integral derivatives from FoFJK, PRISM(SPDF).
 Compute integral second derivatives, UseDBF=F ICtDFT=           0.
 Calling FoFJK, ICntrl=    100127 FMM=F ISym2X=1 I1Cent= 0 IOpClX= 0 NMat=1 NMatS=1 NMatT=0.
 FoFJK:  IHMeth= 1 ICntrl=  100127 DoSepK=F KAlg= 0 I1Cent=           0 FoldK=F
 IRaf=         0 NMat=       1 IRICut=       1 DoRegI=T DoRafI=F ISym2E= 1 IDoP0=0 IntGTp=1.
 FoFCou: FMM=F IPFlag=           0 FMFlag=      100000 FMFlg1=         800
         NFxFlg=           0 DoJE=F BraDBF=F KetDBF=F FulRan=T
         wScrn=  0.000000 ICntrl=    100127 IOpCl=  0 I1Cent=           0 NGrid=           0
         NMat0=    1 NMatS0=      1 NMatT0=    0 NMatD0=    1 NMtDS0=    0 NMtDT0=    0
 Petite list used in FoFCou.
 Leave Link  703 at Tue Dec 16 19:07:20 2025, MaxMem=   104857600 cpu:               0.6 elap:               0.6
 (Enter /mnt/Data/G16//g16/l716.exe)
 Dipole        =-5.26372587D-17 2.77555756D-17-1.03482104D+00
 Polarizability= 8.25393422D+00 2.68504455D-16 9.44726802D+00
                 1.58199357D-16-6.50679684D-14 7.81255653D+00
 Full mass-weighted force constant matrix:
 Low frequencies --- -232.9833 -130.7188 -128.8051   -0.0005    0.0011    0.0012
 Low frequencies --- 1589.2796 3782.6967 3864.4957
 Diagonal vibrational polarizability:
        0.0000000       0.2796136       1.4160698
 Harmonic frequencies (cm**-1), IR intensities (KM/Mole), Raman scattering
 activities (A**4/AMU), depolarization ratios for plane and unpolarized
 incident light, reduced masses (AMU), force constants (mDyne/A),
 and normal coordinates:
                      1                      2                      3
                     A1                     A1                     B2
 Frequencies --   1589.2796              3782.6967              3864.4787
 Red. masses --      1.0816                 1.0462                 1.0818
 Frc consts  --      1.6096                 8.8196                 9.5185
 IR Inten    --    123.6597                52.3935               155.1698
  Atom  AN      X      Y      Z        X      Y      Z        X      Y      Z
     1   8    -0.00  -0.00  -0.07     0.00   0.00   0.05    -0.00  -0.07   0.00
     2   1     0.00   0.43   0.56     0.00   0.58  -0.40     0.00   0.56  -0.43
     3   1     0.00  -0.43   0.56    -0.00  -0.58  -0.40     0.00   0.56   0.43

 -------------------
 - Thermochemistry -
 -------------------
 Temperature   298.150 Kelvin.  Pressure   1.00000 Atm.
 Atom     1 has atomic number  8 and mass  15.99491
 Atom     2 has atomic number  1 and mass   1.00783
 Atom     3 has atomic number  1 and mass   1.00783
 Molecular mass:    18.01056 amu.
 Principal axes and moments of inertia in atomic units:
                           1         2         3
     Eigenvalues --     2.23584   4.18749   6.42332
           X            0.00000   0.00000   1.00000
           Y            1.00000   0.00000  -0.00000
           Z            0.00000   1.00000   0.00000
 This molecule is an asymmetric top.
 Rotational symmetry number  2.
 Rotational temperatures (Kelvin)     38.73890    20.68399    13.48428
 Rotational constants (GHZ):         807.18771   430.98439   280.96684
 Zero-point vibrational energy      55246.3 (Joules/Mol)
                                   13.20418 (Kcal/Mol)
 Vibrational temperatures:   2286.62  5442.46  5560.12
          (Kelvin)
 
 Zero-point correction=                           0.021042 (Hartree/Particle)
 Thermal correction to Energy=                    0.023878
 Thermal correction to Enthalpy=                  0.024822
 Thermal correction to Gibbs Free Energy=         0.003388
 Sum of electronic and zero-point Energies=            -76.451023
 Sum of electronic and thermal Energies=               -76.448187
 Sum of electronic and thermal Enthalpies=             -76.447243
 Sum of electronic and thermal Free Energies=          -76.468677
 
                     E (Thermal)             CV                S
                      KCal/Mol        Cal/Mol-Kelvin    Cal/Mol-Kelvin
 Total                   14.984              6.016             45.112
 Electronic               0.000              0.000              0.000
 Translational            0.889              2.981             34.608
 Rotational               0.889              2.981             10.496
 Vibrational             13.206              0.055              0.008
                       Q            Log10(Q)             Ln(Q)
 Total Bot       0.276447D-01         -1.558388         -3.588321
 Total V=0       0.131929D+09          8.120340         18.697774
 Vib (Bot)       0.209640D-09         -9.678525        -22.285628
 Vib (V=0)       0.100047D+01          0.000203          0.000467
 Electronic      0.100000D+01          0.000000          0.000000
 Translational   0.300431D+07          6.477745         14.915559
 Rotational      0.438927D+02          1.642392          3.781748
 
                                                              h2o_b3lyp
                                                             IR Spectrum
 
     3  3                                                                       1                                                    
     8  7                                                                       5                                                    
     6  8                                                                       8                                                    
     4  3                                                                       9                                                    
 
     X  X                                                                       X                                                    
     X  X                                                                       X                                                    
     X  X                                                                       X                                                    
     X  X                                                                       X                                                    
     X  X                                                                       X                                                    
     X  X                                                                       X                                                    
     X  X                                                                       X                                                    
     X                                                                          X                                                    
     X                                                                          X                                                    
     X                                                                          X                                                    
     X                                                                          X                                                    
     X                                                                          X                                                    
     X                                                                          X                                                    
     X                                                                          X                                                    
     X                                                                          X                                                    
     X                                                                          X                                                    
     X                                                                                                                               
     X                                                                                                                               
     X                                                                                                                               
     X                                                                                                                               
 
 ***** Axes restored to original set *****
 -------------------------------------------------------------------
 Center     Atomic                   Forces (Hartrees/Bohr)
 Number     Number              X              Y              Z
 -------------------------------------------------------------------
      1        8          -0.000000000    0.000000000    0.000213205
      2        1           0.000000000   -0.000048858   -0.000106603
      3        1           0.000000000    0.000048858   -0.000106603
 -------------------------------------------------------------------
 Cartesian Forces:  Max     0.000213205 RMS     0.000090036
 Force constants in Cartesian coordinates: 
                1             2             3             4             5 
      1 -0.112390D-02
      2  0.000000D+00  0.661122D+00
      3  0.000000D+00  0.000000D+00  0.450011D+00
      4  0.561950D-03  0.000000D+00  0.000000D+00 -0.606829D-03
      5  0.000000D+00 -0.330561D+00  0.201921D+00  0.000000D+00  0.359633D+00
      6  0.000000D+00  0.256137D+00 -0.225006D+00  0.000000D+00 -0.229029D+00
      7  0.561950D-03  0.000000D+00  0.000000D+00  0.448786D-04  0.000000D+00
      8  0.000000D+00 -0.330561D+00 -0.201921D+00  0.000000D+00 -0.290721D-01
      9  0.000000D+00 -0.256137D+00 -0.225006D+00  0.000000D+00  0.271081D-01
                6             7             8             9 
      6  0.210154D+00
      7  0.000000D+00 -0.606829D-03
      8 -0.271081D-01  0.000000D+00  0.359633D+00
      9  0.148519D-01  0.000000D+00  0.229029D+00  0.210154D+00
 FormGI is forming the generalized inverse of G from B-inverse, IUseBI=4.
 Force constants in internal coordinates: 
                1             2             3 
      1  0.525901D+00
      2 -0.310153D-02  0.525901D+00
      3  0.264873D-01  0.264873D-01  0.151234D+00
 Leave Link  716 at Tue Dec 16 19:07:20 2025, MaxMem=   104857600 cpu:               0.0 elap:               0.1
 (Enter /mnt/Data/G16//g16/l103.exe)

 GradGradGradGradGradGradGradGradGradGradGradGradGradGradGradGradGradGrad
 Berny optimization.
 Red2BG is reusing G-inverse.
 Internal  Forces:  Max     0.000208256 RMS     0.000122198
 Search for a local minimum.
 Step number   1 out of a maximum of    2
 All quantities printed in internal units (Hartrees-Bohrs-Radians)
 Second derivative matrix not updated -- analytic derivatives used.
 The second derivative matrix:
                          R1        R2        A1
           R1           0.52590
           R2          -0.00310   0.52590
           A1           0.02649   0.02649   0.15123
 ITU=  0
     Eigenvalues ---    0.14750   0.52654   0.52900
 Angle between quadratic step and forces=   3.30 degrees.
 Linear search not attempted -- first point.
 Iteration  1 RMS(Cart)=  0.00076915 RMS(Int)=  0.00000038
 Iteration  2 RMS(Cart)=  0.00000035 RMS(Int)=  0.00000000
 ITry= 1 IFail=0 DXMaxC= 7.32D-04 DCOld= 1.00D+10 DXMaxT= 3.00D-01 DXLimC= 3.00D+00 Rises=F
 ClnCor:  largest displacement from symmetrization is 1.05D-15 for atom     3.
 Variable       Old X    -DE/DX   Delta X   Delta X   Delta X     New X
                                 (Linear)    (Quad)   (Total)
    R1        1.82387   0.00003   0.00000   0.00012   0.00012   1.82400
    R2        1.82387   0.00003   0.00000   0.00012   0.00012   1.82400
    A1        1.82249  -0.00021   0.00000  -0.00142  -0.00142   1.82107
         Item               Value     Threshold  Converged?
 Maximum Force            0.000208     0.000450     YES
 RMS     Force            0.000122     0.000300     YES
 Maximum Displacement     0.000732     0.001800     YES
 RMS     Displacement     0.000769     0.001200     YES
 Predicted change in Energy=-1.511627D-07
 Optimization completed.
    -- Stationary point found.
                           ----------------------------
                           !   Optimized Parameters   !
                           ! (Angstroms and Degrees)  !
 --------------------------                            --------------------------
 ! Name  Definition              Value          Derivative Info.                !
 --------------------------------------------------------------------------------
 ! R1    R(1,2)                  0.9652         -DE/DX =    0.0                 !
 ! R2    R(1,3)                  0.9652         -DE/DX =    0.0                 !
 ! A1    A(2,1,3)              104.4212         -DE/DX =   -0.0002              !
 --------------------------------------------------------------------------------
 GradGradGradGradGradGradGradGradGradGradGradGradGradGradGradGradGradGrad

 Leave Link  103 at Tue Dec 16 19:07:20 2025, MaxMem=   104857600 cpu:               0.0 elap:               0.0
 (Enter /mnt/Data/G16//g16/l9999.exe)

 ----------------------------------------------------------------------

 Electric dipole moment (input orientation):
 (Debye = 10**-18 statcoulomb cm , SI units = C m)
                  (au)            (Debye)         (10**-30 SI)
   Tot        0.103482D+01      0.263025D+01      0.877358D+01
   x          0.000000D+00      0.000000D+00      0.000000D+00
   y          0.000000D+00      0.000000D+00      0.000000D+00
   z         -0.103482D+01     -0.263025D+01     -0.877358D+01

 Dipole polarizability, Alpha (input orientation).
 (esu units = cm**3 , SI units = C**2 m**2 J**-1)
 Alpha(0;0):
               (au)            (10**-24 esu)      (10**-40 SI)
   iso        0.850459D+01      0.126025D+01      0.140222D+01
   aniso      0.146478D+01      0.217058D+00      0.241509D+00
   xx         0.825393D+01      0.122311D+01      0.136089D+01
   yx         0.000000D+00      0.000000D+00      0.000000D+00
   yy         0.944727D+01      0.139994D+01      0.155764D+01
   zx         0.000000D+00      0.000000D+00      0.000000D+00
   zy         0.000000D+00      0.000000D+00      0.000000D+00
   zz         0.781256D+01      0.115770D+01      0.128812D+01

 ----------------------------------------------------------------------

 Dipole orientation:
     8         -0.00000000          0.00000000         -0.22351870
     1          0.00000000         -1.44134892          0.89407856
     1         -0.00000000          1.44134892          0.89407856

 Electric dipole moment (dipole orientation):
 (Debye = 10**-18 statcoulomb cm , SI units = C m)
                  (au)            (Debye)         (10**-30 SI)
   Tot        0.103482D+01      0.263025D+01      0.877358D+01
   x          0.000000D+00      0.000000D+00      0.000000D+00
   y          0.000000D+00      0.000000D+00      0.000000D+00
   z          0.103482D+01      0.263025D+01      0.877358D+01

 Dipole polarizability, Alpha (dipole orientation).
 (esu units = cm**3 , SI units = C**2 m**2 J**-1)
 Alpha(0;0):
               (au)            (10**-24 esu)      (10**-40 SI)
   iso        0.850459D+01      0.126025D+01      0.140222D+01
   aniso      0.146478D+01      0.217058D+00      0.241509D+00
   xx         0.825393D+01      0.122311D+01      0.136089D+01
   yx         0.000000D+00      0.000000D+00      0.000000D+00
   yy         0.944727D+01      0.139994D+01      0.155764D+01
   zx         0.000000D+00      0.000000D+00      0.000000D+00
   zy         0.000000D+00      0.000000D+00      0.000000D+00
   zz         0.781256D+01      0.115770D+01      0.128812D+01

 ----------------------------------------------------------------------
 1\1\GINC-FEDORA\Freq\RB3LYP\6-311++G(d,p)\H2O1\LEEDMOL\16-Dec-2025\0\\
 #P Geom=AllCheck Guess=TCheck SCRF=Check GenChk RB3LYP/6-311++G(d,p) F
 req\\h2o_b3lyp\\0,1\O,0.,0.,0.118281\H,0.,0.762729,-0.473126\H,0.,-0.7
 62729,-0.473126\\Version=EM64L-G16RevB.01\State=1-A1\HF=-76.4720652\RM
 SD=1.908e-10\RMSF=9.004e-05\ZeroPoint=0.0210422\Thermal=0.0238781\Dipo
 le=0.,0.,-1.034821\DipoleDeriv=-0.9264934,0.,0.,0.,-0.7540975,0.,0.,0.
 ,-0.5676935,0.4632467,0.,0.,0.,0.3770487,0.01671,0.,0.0675272,0.283846
 7,0.4632467,0.,0.,0.,0.3770487,-0.01671,0.,-0.0675272,0.2838467\Polar=
 8.2539342,0.,9.447268,0.,0.,7.8125565\Quadrupole=-1.2512608,1.4539338,
 -0.202673,0.,0.,0.\PG=C02V [C2(O1),SGV(H2)]\NImag=0\\-0.00112390,0.,0.
 66112217,0.,0.,0.45001134,0.00056195,0.,0.,-0.00060683,0.,-0.33056108,
 0.20192133,0.,0.35963317,0.,0.25613747,-0.22500567,0.,-0.22902940,0.21
 015373,0.00056195,0.,0.,0.00004488,0.,0.,-0.00060683,0.,-0.33056108,-0
 .20192133,0.,-0.02907209,-0.02710807,0.,0.35963317,0.,-0.25613747,-0.2
 2500567,0.,0.02710807,0.01485194,0.,0.22902940,0.21015373\\0.,0.,-0.00
 021321,0.,0.00004886,0.00010660,0.,-0.00004886,0.00010660\\\@


 TO SEE A WORLD IN A GRAIN OF SAND
 AND A HEAVEN IN A WILD FLOWER
 HOLD INFINITY IN THE PALM OF YOUR HAND
 AND ETERNITY IN AN HOUR

                       -- WILLIAM BLAKE
 Job cpu time:       0 days  0 hours  0 minutes  4.9 seconds.
 Elapsed time:       0 days  0 hours  0 minutes  5.7 seconds.
 File lengths (MBytes):  RWF=      6 Int=      0 D2E=      0 Chk=      2 Scr=      1
 Normal termination of Gaussian 16 at Tue Dec 16 19:07:20 2025.
